<?xml version="1.0" encoding="UTF-8"?>

<!-- generated on 3/30/2016 12:07:00 PM by SUMO gui Version 0.24.0
<?xml version="1.0" encoding="UTF-8"?>

<configuration xmlns:xsi="http://www.w3.org/2001/XMLSchema-instance" xsi:noNamespaceSchemaLocation="http://sumo.dlr.de/xsd/sumo-gui.exeConfiguration.xsd">

    <input>
        <net-file value="C:\Users\Xavier\Dropbox\Courses\Fall\ME%20199%20-%20Final%20Year%20Project\Sumo%20Projects\Huntington%20Colorado\Version%204\huntingtonColorado.net.xml"/>
        <route-files value="C:\Users\Xavier\Dropbox\Courses\Fall\ME%20199%20-%20Final%20Year%20Project\Sumo%20Projects\Huntington%20Colorado\Version%204\huntingtonColorado_exp.rou.xml"/>
        <additional-files value="C:\Users\Xavier\Dropbox\Courses\Fall\ME%20199%20-%20Final%20Year%20Project\Sumo%20Projects\Huntington%20Colorado\Version%204\huntingtonColoradoMyAdd.add.xml"/>
    </input>

    <output>
        <summary-output value="tripinfo_new_0.7.xml"/>
        <save-state.prefix value="C:\Users\Xavier\Dropbox\Courses\Fall\ME%20199%20-%20Final%20Year%20Project\Sumo%20Projects\Huntington%20Colorado\Version%204\state"/>
    </output>

    <time>
        <begin value="0"/>
    </time>

    <processing>
        <time-to-teleport value="-1"/>
    </processing>

    <emissions>
        <phemlight-path value="C:\Users\Xavier\Dropbox\Courses\Fall\ME%20199%20-%20Final%20Year%20Project\Sumo%20Projects\Huntington%20Colorado\Version%204\./PHEMlight/"/>
    </emissions>

    <traci_server>
        <remote-port value="8873"/>
    </traci_server>

</configuration>
-->

<summary xmlns:xsi="http://www.w3.org/2001/XMLSchema-instance" xsi:noNamespaceSchemaLocation="http://sumo.dlr.de/xsd/summary_file.xsd">
    <step time="0.00" loaded="21" inserted="20" running="20" waiting="0" ended="0" meanWaitingTime="0.00" meanTravelTime="-1.00" duration="0"/>
    <step time="1.00" loaded="21" inserted="20" running="20" waiting="1" ended="0" meanWaitingTime="0.00" meanTravelTime="-1.00" duration="2"/>
    <step time="2.00" loaded="654" inserted="21" running="21" waiting="0" ended="0" meanWaitingTime="0.05" meanTravelTime="-1.00" duration="1"/>
    <step time="3.00" loaded="654" inserted="25" running="25" waiting="1" ended="0" meanWaitingTime="0.04" meanTravelTime="-1.00" duration="120"/>
    <step time="4.00" loaded="654" inserted="27" running="27" waiting="1" ended="0" meanWaitingTime="0.04" meanTravelTime="-1.00" duration="1"/>
    <step time="5.00" loaded="654" inserted="28" running="28" waiting="1" ended="0" meanWaitingTime="0.11" meanTravelTime="-1.00" duration="1"/>
    <step time="6.00" loaded="654" inserted="31" running="31" waiting="0" ended="0" meanWaitingTime="0.13" meanTravelTime="-1.00" duration="0"/>
    <step time="7.00" loaded="654" inserted="35" running="35" waiting="1" ended="0" meanWaitingTime="0.11" meanTravelTime="-1.00" duration="1"/>
    <step time="8.00" loaded="654" inserted="39" running="39" waiting="1" ended="0" meanWaitingTime="0.13" meanTravelTime="-1.00" duration="3"/>
    <step time="9.00" loaded="654" inserted="40" running="39" waiting="1" ended="1" meanWaitingTime="0.13" meanTravelTime="9.00" duration="1"/>
    <step time="10.00" loaded="654" inserted="41" running="40" waiting="2" ended="1" meanWaitingTime="0.12" meanTravelTime="9.00" duration="2"/>
    <step time="11.00" loaded="654" inserted="45" running="44" waiting="1" ended="1" meanWaitingTime="0.18" meanTravelTime="9.00" duration="2"/>
    <step time="12.00" loaded="654" inserted="49" running="48" waiting="2" ended="1" meanWaitingTime="0.16" meanTravelTime="9.00" duration="1"/>
    <step time="13.00" loaded="654" inserted="51" running="50" waiting="1" ended="1" meanWaitingTime="0.22" meanTravelTime="9.00" duration="1"/>
    <step time="14.00" loaded="654" inserted="54" running="52" waiting="2" ended="2" meanWaitingTime="0.20" meanTravelTime="11.50" duration="1"/>
    <step time="15.00" loaded="654" inserted="55" running="53" waiting="2" ended="2" meanWaitingTime="0.20" meanTravelTime="11.50" duration="1"/>
    <step time="16.00" loaded="654" inserted="60" running="57" waiting="2" ended="3" meanWaitingTime="0.25" meanTravelTime="10.67" duration="3"/>
    <step time="17.00" loaded="654" inserted="61" running="58" waiting="3" ended="3" meanWaitingTime="0.25" meanTravelTime="10.67" duration="2"/>
    <step time="18.00" loaded="654" inserted="71" running="67" waiting="2" ended="4" meanWaitingTime="0.27" meanTravelTime="11.75" duration="3"/>
    <step time="19.00" loaded="654" inserted="74" running="70" waiting="3" ended="4" meanWaitingTime="0.26" meanTravelTime="11.75" duration="2"/>
    <step time="20.00" loaded="654" inserted="76" running="71" waiting="3" ended="5" meanWaitingTime="0.25" meanTravelTime="11.20" duration="2"/>
    <step time="21.00" loaded="654" inserted="79" running="74" waiting="3" ended="5" meanWaitingTime="0.30" meanTravelTime="11.20" duration="2"/>
    <step time="22.00" loaded="654" inserted="82" running="75" waiting="3" ended="7" meanWaitingTime="0.29" meanTravelTime="12.29" duration="2"/>
    <step time="23.00" loaded="654" inserted="84" running="77" waiting="3" ended="7" meanWaitingTime="0.36" meanTravelTime="12.29" duration="2"/>
    <step time="24.00" loaded="654" inserted="87" running="79" waiting="2" ended="8" meanWaitingTime="0.40" meanTravelTime="12.00" duration="2"/>
    <step time="25.00" loaded="654" inserted="90" running="82" waiting="3" ended="8" meanWaitingTime="0.39" meanTravelTime="12.00" duration="3"/>
    <step time="26.00" loaded="654" inserted="93" running="83" waiting="4" ended="10" meanWaitingTime="0.38" meanTravelTime="12.60" duration="2"/>
    <step time="27.00" loaded="654" inserted="95" running="84" waiting="3" ended="11" meanWaitingTime="0.43" meanTravelTime="12.27" duration="3"/>
    <step time="28.00" loaded="654" inserted="98" running="87" waiting="3" ended="11" meanWaitingTime="0.47" meanTravelTime="12.27" duration="3"/>
    <step time="29.00" loaded="654" inserted="102" running="91" waiting="3" ended="11" meanWaitingTime="0.45" meanTravelTime="12.27" duration="2"/>
    <step time="30.00" loaded="654" inserted="103" running="92" waiting="4" ended="11" meanWaitingTime="0.45" meanTravelTime="12.27" duration="2"/>
    <step time="31.00" loaded="654" inserted="105" running="92" waiting="3" ended="13" meanWaitingTime="0.50" meanTravelTime="12.92" duration="2"/>
    <step time="32.00" loaded="654" inserted="110" running="97" waiting="3" ended="13" meanWaitingTime="0.53" meanTravelTime="12.92" duration="2"/>
    <step time="33.00" loaded="654" inserted="113" running="100" waiting="3" ended="13" meanWaitingTime="0.51" meanTravelTime="12.92" duration="3"/>
    <step time="34.00" loaded="654" inserted="114" running="101" waiting="4" ended="13" meanWaitingTime="0.51" meanTravelTime="12.92" duration="2"/>
    <step time="35.00" loaded="654" inserted="117" running="102" waiting="4" ended="15" meanWaitingTime="0.56" meanTravelTime="15.40" duration="2"/>
    <step time="36.00" loaded="654" inserted="127" running="109" waiting="4" ended="18" meanWaitingTime="0.51" meanTravelTime="15.78" duration="3"/>
    <step time="37.00" loaded="654" inserted="130" running="112" waiting="5" ended="18" meanWaitingTime="0.50" meanTravelTime="15.78" duration="2"/>
    <step time="38.00" loaded="654" inserted="132" running="114" waiting="4" ended="18" meanWaitingTime="0.55" meanTravelTime="15.78" duration="2"/>
    <step time="39.00" loaded="654" inserted="134" running="116" waiting="5" ended="18" meanWaitingTime="0.54" meanTravelTime="15.78" duration="2"/>
    <step time="40.00" loaded="654" inserted="138" running="120" waiting="5" ended="18" meanWaitingTime="0.53" meanTravelTime="15.78" duration="2"/>
    <step time="41.00" loaded="654" inserted="139" running="121" waiting="5" ended="18" meanWaitingTime="0.59" meanTravelTime="15.78" duration="2"/>
    <step time="42.00" loaded="654" inserted="142" running="124" waiting="4" ended="18" meanWaitingTime="0.63" meanTravelTime="15.78" duration="2"/>
    <step time="43.00" loaded="654" inserted="145" running="127" waiting="5" ended="18" meanWaitingTime="0.62" meanTravelTime="15.78" duration="2"/>
    <step time="44.00" loaded="654" inserted="148" running="130" waiting="6" ended="18" meanWaitingTime="0.61" meanTravelTime="15.78" duration="2"/>
    <step time="45.00" loaded="654" inserted="151" running="133" waiting="5" ended="18" meanWaitingTime="0.66" meanTravelTime="15.78" duration="1"/>
    <step time="46.00" loaded="654" inserted="153" running="135" waiting="5" ended="18" meanWaitingTime="0.71" meanTravelTime="15.78" duration="2"/>
    <step time="47.00" loaded="654" inserted="154" running="136" waiting="5" ended="18" meanWaitingTime="0.71" meanTravelTime="15.78" duration="3"/>
    <step time="48.00" loaded="654" inserted="159" running="140" waiting="6" ended="19" meanWaitingTime="0.69" meanTravelTime="16.84" duration="4"/>
    <step time="49.00" loaded="654" inserted="161" running="141" waiting="5" ended="20" meanWaitingTime="0.74" meanTravelTime="18.45" duration="3"/>
    <step time="50.00" loaded="654" inserted="165" running="145" waiting="5" ended="20" meanWaitingTime="0.78" meanTravelTime="18.45" duration="2"/>
    <step time="51.00" loaded="654" inserted="168" running="147" waiting="5" ended="21" meanWaitingTime="0.76" meanTravelTime="19.14" duration="2"/>
    <step time="52.00" loaded="654" inserted="171" running="149" waiting="7" ended="22" meanWaitingTime="0.75" meanTravelTime="20.27" duration="4"/>
    <step time="53.00" loaded="654" inserted="173" running="149" waiting="6" ended="24" meanWaitingTime="0.80" meanTravelTime="21.50" duration="2"/>
    <step time="54.00" loaded="654" inserted="182" running="156" waiting="5" ended="26" meanWaitingTime="0.82" meanTravelTime="22.65" duration="3"/>
    <step time="55.00" loaded="654" inserted="186" running="159" waiting="6" ended="27" meanWaitingTime="0.80" meanTravelTime="22.93" duration="3"/>
    <step time="56.00" loaded="654" inserted="187" running="160" waiting="6" ended="27" meanWaitingTime="0.80" meanTravelTime="22.93" duration="2"/>
    <step time="57.00" loaded="654" inserted="189" running="161" waiting="6" ended="28" meanWaitingTime="0.85" meanTravelTime="22.93" duration="3"/>
    <step time="58.00" loaded="654" inserted="191" running="163" waiting="6" ended="28" meanWaitingTime="0.84" meanTravelTime="22.93" duration="2"/>
    <step time="59.00" loaded="654" inserted="195" running="167" waiting="7" ended="28" meanWaitingTime="0.82" meanTravelTime="22.93" duration="2"/>
    <step time="60.00" loaded="654" inserted="200" running="171" waiting="6" ended="29" meanWaitingTime="0.86" meanTravelTime="23.86" duration="2"/>
    <step time="61.00" loaded="654" inserted="200" running="170" waiting="7" ended="30" meanWaitingTime="0.86" meanTravelTime="24.20" duration="2"/>
    <step time="62.00" loaded="654" inserted="201" running="170" waiting="8" ended="31" meanWaitingTime="0.86" meanTravelTime="24.77" duration="2"/>
    <step time="63.00" loaded="654" inserted="205" running="174" waiting="8" ended="31" meanWaitingTime="0.90" meanTravelTime="24.77" duration="2"/>
    <step time="64.00" loaded="654" inserted="208" running="175" waiting="9" ended="33" meanWaitingTime="0.89" meanTravelTime="24.45" duration="2"/>
    <step time="65.00" loaded="654" inserted="210" running="177" waiting="9" ended="33" meanWaitingTime="0.88" meanTravelTime="24.45" duration="3"/>
    <step time="66.00" loaded="654" inserted="212" running="178" waiting="10" ended="34" meanWaitingTime="0.94" meanTravelTime="25.12" duration="3"/>
    <step time="67.00" loaded="654" inserted="214" running="179" waiting="10" ended="35" meanWaitingTime="0.93" meanTravelTime="25.77" duration="3"/>
    <step time="68.00" loaded="654" inserted="215" running="179" waiting="12" ended="36" meanWaitingTime="0.93" meanTravelTime="25.44" duration="2"/>
    <step time="69.00" loaded="654" inserted="218" running="182" waiting="10" ended="36" meanWaitingTime="0.99" meanTravelTime="25.44" duration="2"/>
    <step time="70.00" loaded="654" inserted="220" running="184" waiting="12" ended="36" meanWaitingTime="0.98" meanTravelTime="25.44" duration="8"/>
    <step time="71.00" loaded="654" inserted="223" running="185" waiting="14" ended="38" meanWaitingTime="0.97" meanTravelTime="26.50" duration="3"/>
    <step time="72.00" loaded="654" inserted="235" running="195" waiting="12" ended="40" meanWaitingTime="1.00" meanTravelTime="27.63" duration="3"/>
    <step time="73.00" loaded="654" inserted="235" running="195" waiting="13" ended="40" meanWaitingTime="1.00" meanTravelTime="27.63" duration="2"/>
    <step time="74.00" loaded="654" inserted="236" running="195" waiting="14" ended="41" meanWaitingTime="0.99" meanTravelTime="27.90" duration="4"/>
    <step time="75.00" loaded="654" inserted="239" running="198" waiting="15" ended="41" meanWaitingTime="1.05" meanTravelTime="27.90" duration="5"/>
    <step time="76.00" loaded="654" inserted="242" running="201" waiting="13" ended="41" meanWaitingTime="1.12" meanTravelTime="27.90" duration="4"/>
    <step time="77.00" loaded="654" inserted="244" running="203" waiting="14" ended="41" meanWaitingTime="1.11" meanTravelTime="27.90" duration="4"/>
    <step time="78.00" loaded="654" inserted="245" running="204" waiting="16" ended="41" meanWaitingTime="1.10" meanTravelTime="27.90" duration="4"/>
    <step time="79.00" loaded="654" inserted="249" running="208" waiting="15" ended="41" meanWaitingTime="1.16" meanTravelTime="27.90" duration="4"/>
    <step time="80.00" loaded="654" inserted="254" running="211" waiting="15" ended="43" meanWaitingTime="1.21" meanTravelTime="28.35" duration="4"/>
    <step time="81.00" loaded="654" inserted="255" running="211" waiting="17" ended="44" meanWaitingTime="1.20" meanTravelTime="28.30" duration="6"/>
    <step time="82.00" loaded="654" inserted="256" running="212" waiting="17" ended="44" meanWaitingTime="1.20" meanTravelTime="28.30" duration="3"/>
    <step time="83.00" loaded="654" inserted="258" running="213" waiting="16" ended="45" meanWaitingTime="1.27" meanTravelTime="29.51" duration="2"/>
    <step time="84.00" loaded="654" inserted="261" running="215" waiting="18" ended="46" meanWaitingTime="1.25" meanTravelTime="30.70" duration="3"/>
    <step time="85.00" loaded="654" inserted="263" running="217" waiting="19" ended="46" meanWaitingTime="1.24" meanTravelTime="30.70" duration="3"/>
    <step time="86.00" loaded="654" inserted="266" running="217" waiting="19" ended="49" meanWaitingTime="1.30" meanTravelTime="33.27" duration="3"/>
    <step time="87.00" loaded="654" inserted="268" running="219" waiting="18" ended="49" meanWaitingTime="1.37" meanTravelTime="33.27" duration="3"/>
    <step time="88.00" loaded="654" inserted="271" running="221" waiting="19" ended="50" meanWaitingTime="1.35" meanTravelTime="33.64" duration="3"/>
    <step time="89.00" loaded="654" inserted="272" running="222" waiting="21" ended="50" meanWaitingTime="1.35" meanTravelTime="33.64" duration="2"/>
    <step time="90.00" loaded="654" inserted="280" running="228" waiting="21" ended="52" meanWaitingTime="1.38" meanTravelTime="35.21" duration="3"/>
    <step time="91.00" loaded="654" inserted="283" running="231" waiting="22" ended="52" meanWaitingTime="1.36" meanTravelTime="35.21" duration="3"/>
    <step time="92.00" loaded="654" inserted="286" running="234" waiting="23" ended="52" meanWaitingTime="1.35" meanTravelTime="35.21" duration="3"/>
    <step time="93.00" loaded="654" inserted="287" running="234" waiting="23" ended="53" meanWaitingTime="1.42" meanTravelTime="36.30" duration="2"/>
    <step time="94.00" loaded="654" inserted="291" running="237" waiting="22" ended="54" meanWaitingTime="1.47" meanTravelTime="36.28" duration="3"/>
    <step time="95.00" loaded="654" inserted="292" running="237" waiting="23" ended="55" meanWaitingTime="1.47" meanTravelTime="36.36" duration="4"/>
    <step time="96.00" loaded="654" inserted="296" running="240" waiting="26" ended="56" meanWaitingTime="1.45" meanTravelTime="37.43" duration="3"/>
    <step time="97.00" loaded="654" inserted="298" running="240" waiting="25" ended="58" meanWaitingTime="1.55" meanTravelTime="37.24" duration="3"/>
    <step time="98.00" loaded="654" inserted="300" running="242" waiting="25" ended="58" meanWaitingTime="1.62" meanTravelTime="37.24" duration="3"/>
    <step time="99.00" loaded="654" inserted="303" running="244" waiting="23" ended="59" meanWaitingTime="1.71" meanTravelTime="37.92" duration="3"/>
    <step time="100.00" loaded="654" inserted="307" running="247" waiting="23" ended="60" meanWaitingTime="1.86" meanTravelTime="38.52" duration="3"/>
    <step time="101.00" loaded="654" inserted="312" running="249" waiting="22" ended="63" meanWaitingTime="1.93" meanTravelTime="38.89" duration="3"/>
    <step time="102.00" loaded="654" inserted="312" running="247" waiting="23" ended="65" meanWaitingTime="1.93" meanTravelTime="39.03" duration="3"/>
    <step time="103.00" loaded="654" inserted="316" running="250" waiting="22" ended="66" meanWaitingTime="1.98" meanTravelTime="39.50" duration="4"/>
    <step time="104.00" loaded="654" inserted="320" running="253" waiting="23" ended="67" meanWaitingTime="2.12" meanTravelTime="39.12" duration="4"/>
    <step time="105.00" loaded="654" inserted="323" running="254" waiting="22" ended="69" meanWaitingTime="2.19" meanTravelTime="40.28" duration="3"/>
    <step time="106.00" loaded="654" inserted="324" running="254" waiting="21" ended="70" meanWaitingTime="2.26" meanTravelTime="40.43" duration="2"/>
    <step time="107.00" loaded="654" inserted="327" running="253" waiting="23" ended="74" meanWaitingTime="2.31" meanTravelTime="41.97" duration="3"/>
    <step time="108.00" loaded="654" inserted="338" running="263" waiting="21" ended="75" meanWaitingTime="2.30" meanTravelTime="42.17" duration="3"/>
    <step time="109.00" loaded="654" inserted="340" running="264" waiting="22" ended="76" meanWaitingTime="2.36" meanTravelTime="42.72" duration="4"/>
    <step time="110.00" loaded="654" inserted="342" running="264" waiting="21" ended="78" meanWaitingTime="2.40" meanTravelTime="43.32" duration="3"/>
    <step time="111.00" loaded="654" inserted="347" running="267" waiting="22" ended="80" meanWaitingTime="2.49" meanTravelTime="43.94" duration="3"/>
    <step time="112.00" loaded="654" inserted="351" running="269" waiting="21" ended="82" meanWaitingTime="2.54" meanTravelTime="44.27" duration="3"/>
    <step time="113.00" loaded="654" inserted="352" running="268" waiting="22" ended="84" meanWaitingTime="2.53" meanTravelTime="44.52" duration="3"/>
    <step time="114.00" loaded="654" inserted="353" running="268" waiting="23" ended="85" meanWaitingTime="2.58" meanTravelTime="44.28" duration="3"/>
    <step time="115.00" loaded="654" inserted="359" running="271" waiting="21" ended="88" meanWaitingTime="2.70" meanTravelTime="44.99" duration="3"/>
    <step time="116.00" loaded="654" inserted="361" running="272" waiting="22" ended="89" meanWaitingTime="2.69" meanTravelTime="44.61" duration="4"/>
    <step time="117.00" loaded="654" inserted="361" running="268" waiting="23" ended="93" meanWaitingTime="2.69" meanTravelTime="44.63" duration="3"/>
    <step time="118.00" loaded="654" inserted="365" running="271" waiting="23" ended="94" meanWaitingTime="2.70" meanTravelTime="44.36" duration="4"/>
    <step time="119.00" loaded="654" inserted="368" running="273" waiting="21" ended="95" meanWaitingTime="2.82" meanTravelTime="44.00" duration="3"/>
    <step time="120.00" loaded="654" inserted="371" running="274" waiting="21" ended="97" meanWaitingTime="2.87" meanTravelTime="44.00" duration="4"/>
    <step time="121.00" loaded="654" inserted="372" running="273" waiting="23" ended="99" meanWaitingTime="2.86" meanTravelTime="43.37" duration="3"/>
    <step time="122.00" loaded="654" inserted="377" running="276" waiting="22" ended="101" meanWaitingTime="2.85" meanTravelTime="43.94" duration="4"/>
    <step time="123.00" loaded="654" inserted="381" running="279" waiting="22" ended="102" meanWaitingTime="2.92" meanTravelTime="43.64" duration="5"/>
    <step time="124.00" loaded="654" inserted="384" running="278" waiting="21" ended="106" meanWaitingTime="2.98" meanTravelTime="44.87" duration="5"/>
    <step time="125.00" loaded="654" inserted="385" running="277" waiting="21" ended="108" meanWaitingTime="2.98" meanTravelTime="45.27" duration="5"/>
    <step time="126.00" loaded="654" inserted="394" running="283" waiting="22" ended="111" meanWaitingTime="2.91" meanTravelTime="45.67" duration="5"/>
    <step time="127.00" loaded="654" inserted="397" running="284" waiting="22" ended="113" meanWaitingTime="3.02" meanTravelTime="45.42" duration="4"/>
    <step time="128.00" loaded="654" inserted="401" running="285" waiting="20" ended="116" meanWaitingTime="2.99" meanTravelTime="45.82" duration="4"/>
    <step time="129.00" loaded="654" inserted="403" running="280" waiting="21" ended="123" meanWaitingTime="2.98" meanTravelTime="46.89" duration="4"/>
    <step time="130.00" loaded="654" inserted="407" running="280" waiting="22" ended="127" meanWaitingTime="2.95" meanTravelTime="47.61" duration="4"/>
    <step time="131.00" loaded="654" inserted="410" running="278" waiting="22" ended="132" meanWaitingTime="3.00" meanTravelTime="48.05" duration="4"/>
    <step time="132.00" loaded="654" inserted="412" running="279" waiting="22" ended="133" meanWaitingTime="3.06" meanTravelTime="48.20" duration="3"/>
    <step time="133.00" loaded="654" inserted="416" running="279" waiting="21" ended="137" meanWaitingTime="3.08" meanTravelTime="47.89" duration="3"/>
    <step time="134.00" loaded="654" inserted="420" running="280" waiting="20" ended="140" meanWaitingTime="3.15" meanTravelTime="48.04" duration="5"/>
    <step time="135.00" loaded="654" inserted="420" running="277" waiting="21" ended="143" meanWaitingTime="3.15" meanTravelTime="48.39" duration="4"/>
    <step time="136.00" loaded="654" inserted="422" running="279" waiting="22" ended="143" meanWaitingTime="3.14" meanTravelTime="48.39" duration="4"/>
    <step time="137.00" loaded="654" inserted="427" running="282" waiting="21" ended="145" meanWaitingTime="3.18" meanTravelTime="48.17" duration="4"/>
    <step time="138.00" loaded="654" inserted="428" running="283" waiting="22" ended="145" meanWaitingTime="3.17" meanTravelTime="48.17" duration="4"/>
    <step time="139.00" loaded="654" inserted="430" running="283" waiting="22" ended="147" meanWaitingTime="3.19" meanTravelTime="48.08" duration="4"/>
    <step time="140.00" loaded="654" inserted="433" running="283" waiting="22" ended="150" meanWaitingTime="3.25" meanTravelTime="49.05" duration="4"/>
    <step time="141.00" loaded="654" inserted="436" running="283" waiting="23" ended="153" meanWaitingTime="3.22" meanTravelTime="50.12" duration="4"/>
    <step time="142.00" loaded="654" inserted="437" running="281" waiting="23" ended="156" meanWaitingTime="3.22" meanTravelTime="50.37" duration="6"/>
    <step time="143.00" loaded="654" inserted="439" running="281" waiting="25" ended="158" meanWaitingTime="3.20" meanTravelTime="50.92" duration="4"/>
    <step time="144.00" loaded="654" inserted="452" running="289" waiting="24" ended="163" meanWaitingTime="3.15" meanTravelTime="51.48" duration="4"/>
    <step time="145.00" loaded="654" inserted="454" running="290" waiting="24" ended="164" meanWaitingTime="3.21" meanTravelTime="51.87" duration="4"/>
    <step time="146.00" loaded="654" inserted="456" running="285" waiting="23" ended="171" meanWaitingTime="3.28" meanTravelTime="52.54" duration="4"/>
    <step time="147.00" loaded="654" inserted="458" running="286" waiting="25" ended="172" meanWaitingTime="3.26" meanTravelTime="52.35" duration="3"/>
    <step time="148.00" loaded="654" inserted="461" running="287" waiting="25" ended="174" meanWaitingTime="3.24" meanTravelTime="52.34" duration="5"/>
    <step time="149.00" loaded="654" inserted="462" running="285" waiting="26" ended="177" meanWaitingTime="3.23" meanTravelTime="53.01" duration="3"/>
    <step time="150.00" loaded="654" inserted="464" running="284" waiting="26" ended="180" meanWaitingTime="3.34" meanTravelTime="52.69" duration="4"/>
    <step time="151.00" loaded="654" inserted="467" running="287" waiting="26" ended="180" meanWaitingTime="3.32" meanTravelTime="52.69" duration="4"/>
    <step time="152.00" loaded="654" inserted="471" running="289" waiting="27" ended="182" meanWaitingTime="3.29" meanTravelTime="52.96" duration="4"/>
    <step time="153.00" loaded="654" inserted="472" running="287" waiting="27" ended="185" meanWaitingTime="3.37" meanTravelTime="52.96" duration="4"/>
    <step time="154.00" loaded="654" inserted="473" running="286" waiting="27" ended="187" meanWaitingTime="3.36" meanTravelTime="52.61" duration="3"/>
    <step time="155.00" loaded="654" inserted="478" running="291" waiting="26" ended="187" meanWaitingTime="3.45" meanTravelTime="52.61" duration="5"/>
    <step time="156.00" loaded="654" inserted="481" running="294" waiting="27" ended="187" meanWaitingTime="3.43" meanTravelTime="52.61" duration="4"/>
    <step time="157.00" loaded="654" inserted="483" running="296" waiting="27" ended="187" meanWaitingTime="3.50" meanTravelTime="52.61" duration="3"/>
    <step time="158.00" loaded="654" inserted="485" running="296" waiting="26" ended="189" meanWaitingTime="3.52" meanTravelTime="52.71" duration="3"/>
    <step time="159.00" loaded="654" inserted="487" running="296" waiting="29" ended="191" meanWaitingTime="3.51" meanTravelTime="53.01" duration="3"/>
    <step time="160.00" loaded="654" inserted="491" running="300" waiting="29" ended="191" meanWaitingTime="3.56" meanTravelTime="53.01" duration="5"/>
    <step time="161.00" loaded="654" inserted="495" running="303" waiting="27" ended="192" meanWaitingTime="3.65" meanTravelTime="53.46" duration="5"/>
    <step time="162.00" loaded="654" inserted="505" running="313" waiting="25" ended="192" meanWaitingTime="3.69" meanTravelTime="53.46" duration="3"/>
    <step time="163.00" loaded="654" inserted="506" running="313" waiting="29" ended="193" meanWaitingTime="3.68" meanTravelTime="53.30" duration="4"/>
    <step time="164.00" loaded="654" inserted="510" running="317" waiting="28" ended="193" meanWaitingTime="3.65" meanTravelTime="53.30" duration="4"/>
    <step time="165.00" loaded="654" inserted="510" running="315" waiting="29" ended="195" meanWaitingTime="3.65" meanTravelTime="54.09" duration="4"/>
    <step time="166.00" loaded="654" inserted="512" running="316" waiting="29" ended="196" meanWaitingTime="3.72" meanTravelTime="54.24" duration="3"/>
    <step time="167.00" loaded="654" inserted="514" running="317" waiting="31" ended="197" meanWaitingTime="3.78" meanTravelTime="54.23" duration="4"/>
    <step time="168.00" loaded="654" inserted="520" running="323" waiting="29" ended="197" meanWaitingTime="3.85" meanTravelTime="54.23" duration="3"/>
    <step time="169.00" loaded="654" inserted="521" running="321" waiting="29" ended="200" meanWaitingTime="3.84" meanTravelTime="54.22" duration="3"/>
    <step time="170.00" loaded="654" inserted="523" running="323" waiting="31" ended="200" meanWaitingTime="3.85" meanTravelTime="54.22" duration="4"/>
    <step time="171.00" loaded="654" inserted="525" running="324" waiting="31" ended="201" meanWaitingTime="3.92" meanTravelTime="54.35" duration="4"/>
    <step time="172.00" loaded="654" inserted="530" running="326" waiting="30" ended="204" meanWaitingTime="3.96" meanTravelTime="54.70" duration="4"/>
    <step time="173.00" loaded="654" inserted="532" running="326" waiting="30" ended="206" meanWaitingTime="3.97" meanTravelTime="54.99" duration="4"/>
    <step time="174.00" loaded="654" inserted="533" running="326" waiting="33" ended="207" meanWaitingTime="3.96" meanTravelTime="55.29" duration="4"/>
    <step time="175.00" loaded="654" inserted="535" running="325" waiting="32" ended="210" meanWaitingTime="4.02" meanTravelTime="55.87" duration="4"/>
    <step time="176.00" loaded="654" inserted="540" running="328" waiting="31" ended="212" meanWaitingTime="4.09" meanTravelTime="55.72" duration="4"/>
    <step time="177.00" loaded="654" inserted="542" running="328" waiting="31" ended="214" meanWaitingTime="4.09" meanTravelTime="55.86" duration="4"/>
    <step time="178.00" loaded="654" inserted="544" running="327" waiting="32" ended="217" meanWaitingTime="4.09" meanTravelTime="56.14" duration="4"/>
    <step time="179.00" loaded="654" inserted="546" running="329" waiting="32" ended="217" meanWaitingTime="4.16" meanTravelTime="56.14" duration="4"/>
    <step time="180.00" loaded="654" inserted="554" running="335" waiting="32" ended="219" meanWaitingTime="4.17" meanTravelTime="56.25" duration="4"/>
    <step time="181.00" loaded="654" inserted="560" running="339" waiting="32" ended="221" meanWaitingTime="4.14" meanTravelTime="56.26" duration="4"/>
    <step time="182.00" loaded="654" inserted="563" running="340" waiting="33" ended="223" meanWaitingTime="4.12" meanTravelTime="56.75" duration="4"/>
    <step time="183.00" loaded="654" inserted="565" running="340" waiting="33" ended="225" meanWaitingTime="4.19" meanTravelTime="56.64" duration="4"/>
    <step time="184.00" loaded="654" inserted="567" running="341" waiting="33" ended="226" meanWaitingTime="4.18" meanTravelTime="56.54" duration="3"/>
    <step time="185.00" loaded="654" inserted="569" running="342" waiting="34" ended="227" meanWaitingTime="4.16" meanTravelTime="56.39" duration="4"/>
    <step time="186.00" loaded="654" inserted="571" running="342" waiting="35" ended="229" meanWaitingTime="4.23" meanTravelTime="56.62" duration="4"/>
    <step time="187.00" loaded="654" inserted="572" running="342" waiting="34" ended="230" meanWaitingTime="4.22" meanTravelTime="57.03" duration="5"/>