<?xml version="1.0" encoding="UTF-8"?>

<!-- generated on 3/25/2016 6:32:40 PM by SUMO gui Version 0.24.0
<?xml version="1.0" encoding="UTF-8"?>

<configuration xmlns:xsi="http://www.w3.org/2001/XMLSchema-instance" xsi:noNamespaceSchemaLocation="http://sumo.dlr.de/xsd/sumo-gui.exeConfiguration.xsd">

    <input>
        <net-file value="C:\Users\Xavier\Dropbox\Courses\Fall\ME%20199%20-%20Final%20Year%20Project\Sumo%20Projects\Huntington%20Colorado\Version%204\huntingtonColorado.net.xml"/>
        <route-files value="C:\Users\Xavier\Dropbox\Courses\Fall\ME%20199%20-%20Final%20Year%20Project\Sumo%20Projects\Huntington%20Colorado\Version%204\huntingtonColorado_exp.rou.xml"/>
        <additional-files value="C:\Users\Xavier\Dropbox\Courses\Fall\ME%20199%20-%20Final%20Year%20Project\Sumo%20Projects\Huntington%20Colorado\Version%204\huntingtonColoradoMyAdd.add.xml"/>
    </input>

    <output>
        <summary-output value="tripinfo.xml"/>
        <save-state.prefix value="C:\Users\Xavier\Dropbox\Courses\Fall\ME%20199%20-%20Final%20Year%20Project\Sumo%20Projects\Huntington%20Colorado\Version%204\state"/>
    </output>

    <time>
        <begin value="0"/>
    </time>

    <processing>
        <time-to-teleport value="-1"/>
    </processing>

    <emissions>
        <phemlight-path value="C:\Users\Xavier\Dropbox\Courses\Fall\ME%20199%20-%20Final%20Year%20Project\Sumo%20Projects\Huntington%20Colorado\Version%204\./PHEMlight/"/>
    </emissions>

    <traci_server>
        <remote-port value="8873"/>
    </traci_server>

</configuration>
-->

<summary xmlns:xsi="http://www.w3.org/2001/XMLSchema-instance" xsi:noNamespaceSchemaLocation="http://sumo.dlr.de/xsd/summary_file.xsd">
    <step time="0.00" loaded="21" inserted="20" running="20" waiting="0" ended="0" meanWaitingTime="0.00" meanTravelTime="-1.00" duration="0"/>
    <step time="1.00" loaded="21" inserted="20" running="20" waiting="1" ended="0" meanWaitingTime="0.00" meanTravelTime="-1.00" duration="1"/>
    <step time="2.00" loaded="654" inserted="21" running="21" waiting="0" ended="0" meanWaitingTime="0.05" meanTravelTime="-1.00" duration="3"/>
    <step time="3.00" loaded="654" inserted="25" running="25" waiting="1" ended="0" meanWaitingTime="0.04" meanTravelTime="-1.00" duration="97"/>
    <step time="4.00" loaded="654" inserted="28" running="28" waiting="0" ended="0" meanWaitingTime="0.07" meanTravelTime="-1.00" duration="1"/>
    <step time="5.00" loaded="654" inserted="28" running="28" waiting="1" ended="0" meanWaitingTime="0.07" meanTravelTime="-1.00" duration="1"/>
    <step time="6.00" loaded="654" inserted="31" running="31" waiting="0" ended="0" meanWaitingTime="0.10" meanTravelTime="-1.00" duration="3"/>
    <step time="7.00" loaded="654" inserted="35" running="35" waiting="1" ended="0" meanWaitingTime="0.09" meanTravelTime="-1.00" duration="2"/>
    <step time="8.00" loaded="654" inserted="39" running="39" waiting="1" ended="0" meanWaitingTime="0.10" meanTravelTime="-1.00" duration="3"/>
    <step time="9.00" loaded="654" inserted="40" running="39" waiting="1" ended="1" meanWaitingTime="0.10" meanTravelTime="9.00" duration="1"/>
    <step time="10.00" loaded="654" inserted="41" running="40" waiting="2" ended="1" meanWaitingTime="0.10" meanTravelTime="9.00" duration="2"/>
    <step time="11.00" loaded="654" inserted="45" running="44" waiting="1" ended="1" meanWaitingTime="0.16" meanTravelTime="9.00" duration="3"/>
    <step time="12.00" loaded="654" inserted="49" running="48" waiting="2" ended="1" meanWaitingTime="0.14" meanTravelTime="9.00" duration="1"/>
    <step time="13.00" loaded="654" inserted="50" running="49" waiting="2" ended="1" meanWaitingTime="0.14" meanTravelTime="9.00" duration="1"/>
    <step time="14.00" loaded="654" inserted="54" running="53" waiting="2" ended="1" meanWaitingTime="0.20" meanTravelTime="9.00" duration="2"/>
    <step time="15.00" loaded="654" inserted="55" running="53" waiting="2" ended="2" meanWaitingTime="0.20" meanTravelTime="12.00" duration="2"/>
    <step time="16.00" loaded="654" inserted="59" running="56" waiting="3" ended="3" meanWaitingTime="0.19" meanTravelTime="11.00" duration="5"/>
    <step time="17.00" loaded="654" inserted="61" running="58" waiting="3" ended="3" meanWaitingTime="0.26" meanTravelTime="11.00" duration="1"/>
    <step time="18.00" loaded="654" inserted="70" running="66" waiting="3" ended="4" meanWaitingTime="0.23" meanTravelTime="12.00" duration="3"/>
    <step time="19.00" loaded="654" inserted="73" running="69" waiting="4" ended="4" meanWaitingTime="0.22" meanTravelTime="12.00" duration="7"/>
    <step time="20.00" loaded="654" inserted="76" running="71" waiting="3" ended="5" meanWaitingTime="0.29" meanTravelTime="11.40" duration="1"/>
    <step time="21.00" loaded="654" inserted="78" running="73" waiting="4" ended="5" meanWaitingTime="0.28" meanTravelTime="11.40" duration="4"/>
    <step time="22.00" loaded="654" inserted="81" running="74" waiting="4" ended="7" meanWaitingTime="0.27" meanTravelTime="12.43" duration="1"/>
    <step time="23.00" loaded="654" inserted="83" running="74" waiting="4" ended="9" meanWaitingTime="0.35" meanTravelTime="13.22" duration="2"/>
    <step time="24.00" loaded="654" inserted="86" running="77" waiting="3" ended="9" meanWaitingTime="0.42" meanTravelTime="13.22" duration="1"/>
    <step time="25.00" loaded="654" inserted="89" running="78" waiting="4" ended="11" meanWaitingTime="0.40" meanTravelTime="13.36" duration="3"/>
    <step time="26.00" loaded="654" inserted="92" running="81" waiting="5" ended="11" meanWaitingTime="0.39" meanTravelTime="13.36" duration="2"/>
    <step time="27.00" loaded="654" inserted="94" running="82" waiting="4" ended="12" meanWaitingTime="0.47" meanTravelTime="13.00" duration="2"/>
    <step time="28.00" loaded="654" inserted="96" running="84" waiting="5" ended="12" meanWaitingTime="0.46" meanTravelTime="13.00" duration="2"/>
    <step time="29.00" loaded="654" inserted="100" running="87" waiting="5" ended="13" meanWaitingTime="0.44" meanTravelTime="13.15" duration="2"/>
    <step time="30.00" loaded="654" inserted="102" running="88" waiting="5" ended="14" meanWaitingTime="0.52" meanTravelTime="13.29" duration="2"/>
    <step time="31.00" loaded="654" inserted="104" running="90" waiting="4" ended="14" meanWaitingTime="0.59" meanTravelTime="13.29" duration="1"/>
    <step time="32.00" loaded="654" inserted="108" running="94" waiting="5" ended="14" meanWaitingTime="0.56" meanTravelTime="13.29" duration="2"/>
    <step time="33.00" loaded="654" inserted="111" running="96" waiting="5" ended="15" meanWaitingTime="0.55" meanTravelTime="13.40" duration="2"/>
    <step time="34.00" loaded="654" inserted="113" running="97" waiting="5" ended="16" meanWaitingTime="0.62" meanTravelTime="13.50" duration="1"/>
    <step time="35.00" loaded="654" inserted="116" running="99" waiting="5" ended="17" meanWaitingTime="0.68" meanTravelTime="14.06" duration="1"/>
    <step time="36.00" loaded="654" inserted="126" running="109" waiting="5" ended="17" meanWaitingTime="0.63" meanTravelTime="14.06" duration="2"/>
    <step time="37.00" loaded="654" inserted="129" running="110" waiting="6" ended="19" meanWaitingTime="0.61" meanTravelTime="15.05" duration="1"/>
    <step time="38.00" loaded="654" inserted="131" running="111" waiting="5" ended="20" meanWaitingTime="0.68" meanTravelTime="15.05" duration="2"/>
    <step time="39.00" loaded="654" inserted="133" running="113" waiting="6" ended="20" meanWaitingTime="0.67" meanTravelTime="15.05" duration="1"/>
    <step time="40.00" loaded="654" inserted="137" running="117" waiting="6" ended="20" meanWaitingTime="0.65" meanTravelTime="15.05" duration="1"/>
    <step time="41.00" loaded="654" inserted="138" running="118" waiting="6" ended="20" meanWaitingTime="0.72" meanTravelTime="15.05" duration="3"/>
    <step time="42.00" loaded="654" inserted="140" running="120" waiting="6" ended="20" meanWaitingTime="0.71" meanTravelTime="15.05" duration="2"/>
    <step time="43.00" loaded="654" inserted="144" running="124" waiting="6" ended="20" meanWaitingTime="0.77" meanTravelTime="15.05" duration="2"/>
    <step time="44.00" loaded="654" inserted="147" running="127" waiting="7" ended="20" meanWaitingTime="0.76" meanTravelTime="15.05" duration="1"/>
    <step time="45.00" loaded="654" inserted="149" running="129" waiting="7" ended="20" meanWaitingTime="0.74" meanTravelTime="15.05" duration="2"/>
    <step time="46.00" loaded="654" inserted="151" running="131" waiting="7" ended="20" meanWaitingTime="0.81" meanTravelTime="15.05" duration="1"/>
    <step time="47.00" loaded="654" inserted="153" running="133" waiting="6" ended="20" meanWaitingTime="0.88" meanTravelTime="15.05" duration="1"/>
    <step time="48.00" loaded="654" inserted="158" running="138" waiting="7" ended="20" meanWaitingTime="0.85" meanTravelTime="15.05" duration="2"/>
    <step time="49.00" loaded="654" inserted="159" running="138" waiting="7" ended="21" meanWaitingTime="0.85" meanTravelTime="16.67" duration="2"/>
    <step time="50.00" loaded="654" inserted="163" running="142" waiting="7" ended="21" meanWaitingTime="0.91" meanTravelTime="16.67" duration="2"/>
    <step time="51.00" loaded="654" inserted="166" running="144" waiting="7" ended="22" meanWaitingTime="0.89" meanTravelTime="17.41" duration="2"/>
    <step time="52.00" loaded="654" inserted="170" running="146" waiting="8" ended="24" meanWaitingTime="0.87" meanTravelTime="19.21" duration="2"/>
    <step time="53.00" loaded="654" inserted="171" running="145" waiting="8" ended="26" meanWaitingTime="0.95" meanTravelTime="20.42" duration="2"/>
    <step time="54.00" loaded="654" inserted="180" running="154" waiting="7" ended="26" meanWaitingTime="0.97" meanTravelTime="20.42" duration="2"/>
    <step time="55.00" loaded="654" inserted="183" running="156" waiting="9" ended="27" meanWaitingTime="0.96" meanTravelTime="20.78" duration="2"/>
    <step time="56.00" loaded="654" inserted="184" running="156" waiting="9" ended="28" meanWaitingTime="0.95" meanTravelTime="21.43" duration="2"/>
    <step time="57.00" loaded="654" inserted="186" running="158" waiting="9" ended="28" meanWaitingTime="1.02" meanTravelTime="21.43" duration="2"/>
    <step time="58.00" loaded="654" inserted="188" running="160" waiting="9" ended="28" meanWaitingTime="1.01" meanTravelTime="21.43" duration="1"/>
    <step time="59.00" loaded="654" inserted="192" running="163" waiting="10" ended="29" meanWaitingTime="1.06" meanTravelTime="22.38" duration="3"/>
    <step time="60.00" loaded="654" inserted="196" running="167" waiting="10" ended="29" meanWaitingTime="1.04" meanTravelTime="22.38" duration="2"/>
    <step time="61.00" loaded="654" inserted="196" running="164" waiting="11" ended="32" meanWaitingTime="1.04" meanTravelTime="23.47" duration="2"/>
    <step time="62.00" loaded="654" inserted="198" running="165" waiting="11" ended="33" meanWaitingTime="1.11" meanTravelTime="24.21" duration="3"/>
    <step time="63.00" loaded="654" inserted="201" running="168" waiting="12" ended="33" meanWaitingTime="1.09" meanTravelTime="24.21" duration="2"/>
    <step time="64.00" loaded="654" inserted="204" running="171" waiting="13" ended="33" meanWaitingTime="1.08" meanTravelTime="24.21" duration="2"/>
    <step time="65.00" loaded="654" inserted="207" running="173" waiting="12" ended="34" meanWaitingTime="1.14" meanTravelTime="24.85" duration="2"/>
    <step time="66.00" loaded="654" inserted="208" running="172" waiting="14" ended="36" meanWaitingTime="1.14" meanTravelTime="25.42" duration="2"/>
    <step time="67.00" loaded="654" inserted="210" running="173" waiting="14" ended="37" meanWaitingTime="1.13" meanTravelTime="25.19" duration="2"/>
    <step time="68.00" loaded="654" inserted="213" running="175" waiting="14" ended="38" meanWaitingTime="1.20" meanTravelTime="25.47" duration="3"/>
    <step time="69.00" loaded="654" inserted="215" running="177" waiting="13" ended="38" meanWaitingTime="1.27" meanTravelTime="25.47" duration="2"/>
    <step time="70.00" loaded="654" inserted="217" running="178" waiting="15" ended="39" meanWaitingTime="1.25" meanTravelTime="25.23" duration="2"/>
    <step time="71.00" loaded="654" inserted="221" running="180" waiting="16" ended="41" meanWaitingTime="1.23" meanTravelTime="26.61" duration="2"/>
    <step time="72.00" loaded="654" inserted="232" running="191" waiting="15" ended="41" meanWaitingTime="1.25" meanTravelTime="26.61" duration="2"/>
    <step time="73.00" loaded="654" inserted="233" running="191" waiting="15" ended="42" meanWaitingTime="1.33" meanTravelTime="26.50" duration="2"/>
    <step time="74.00" loaded="654" inserted="235" running="193" waiting="15" ended="42" meanWaitingTime="1.39" meanTravelTime="26.50" duration="4"/>
    <step time="75.00" loaded="654" inserted="238" running="195" waiting="16" ended="43" meanWaitingTime="1.37" meanTravelTime="26.65" duration="3"/>
    <step time="76.00" loaded="654" inserted="239" running="196" waiting="16" ended="43" meanWaitingTime="1.36" meanTravelTime="26.65" duration="3"/>
    <step time="77.00" loaded="654" inserted="242" running="199" waiting="16" ended="43" meanWaitingTime="1.42" meanTravelTime="26.65" duration="2"/>
    <step time="78.00" loaded="654" inserted="244" running="201" waiting="17" ended="43" meanWaitingTime="1.41" meanTravelTime="26.65" duration="2"/>
    <step time="79.00" loaded="654" inserted="246" running="203" waiting="18" ended="43" meanWaitingTime="1.40" meanTravelTime="26.65" duration="3"/>
    <step time="80.00" loaded="654" inserted="251" running="206" waiting="18" ended="45" meanWaitingTime="1.45" meanTravelTime="26.73" duration="3"/>
    <step time="81.00" loaded="654" inserted="253" running="207" waiting="19" ended="46" meanWaitingTime="1.43" meanTravelTime="26.98" duration="2"/>
    <step time="82.00" loaded="654" inserted="253" running="207" waiting="20" ended="46" meanWaitingTime="1.43" meanTravelTime="26.98" duration="3"/>
    <step time="83.00" loaded="654" inserted="255" running="208" waiting="19" ended="47" meanWaitingTime="1.51" meanTravelTime="28.09" duration="2"/>
    <step time="84.00" loaded="654" inserted="258" running="209" waiting="21" ended="49" meanWaitingTime="1.49" meanTravelTime="30.00" duration="2"/>
    <step time="85.00" loaded="654" inserted="260" running="211" waiting="22" ended="49" meanWaitingTime="1.48" meanTravelTime="30.00" duration="3"/>
    <step time="86.00" loaded="654" inserted="263" running="213" waiting="22" ended="50" meanWaitingTime="1.54" meanTravelTime="30.76" duration="3"/>
    <step time="87.00" loaded="654" inserted="264" running="212" waiting="22" ended="52" meanWaitingTime="1.54" meanTravelTime="32.58" duration="3"/>
    <step time="88.00" loaded="654" inserted="267" running="213" waiting="23" ended="54" meanWaitingTime="1.52" meanTravelTime="33.96" duration="2"/>
    <step time="89.00" loaded="654" inserted="269" running="215" waiting="24" ended="54" meanWaitingTime="1.59" meanTravelTime="33.96" duration="3"/>
    <step time="90.00" loaded="654" inserted="277" running="223" waiting="24" ended="54" meanWaitingTime="1.63" meanTravelTime="33.96" duration="2"/>
    <step time="91.00" loaded="654" inserted="280" running="226" waiting="25" ended="54" meanWaitingTime="1.61" meanTravelTime="33.96" duration="3"/>
    <step time="92.00" loaded="654" inserted="283" running="227" waiting="26" ended="56" meanWaitingTime="1.59" meanTravelTime="33.86" duration="5"/>
    <step time="93.00" loaded="654" inserted="285" running="228" waiting="25" ended="57" meanWaitingTime="1.80" meanTravelTime="33.86" duration="4"/>
    <step time="94.00" loaded="654" inserted="288" running="231" waiting="25" ended="57" meanWaitingTime="1.78" meanTravelTime="33.86" duration="4"/>
    <step time="95.00" loaded="654" inserted="289" running="230" waiting="26" ended="59" meanWaitingTime="1.77" meanTravelTime="34.71" duration="3"/>
    <step time="96.00" loaded="654" inserted="293" running="233" waiting="29" ended="60" meanWaitingTime="1.75" meanTravelTime="34.53" duration="3"/>
    <step time="97.00" loaded="654" inserted="296" running="234" waiting="27" ended="62" meanWaitingTime="1.95" meanTravelTime="35.61" duration="3"/>
    <step time="98.00" loaded="654" inserted="298" running="236" waiting="27" ended="62" meanWaitingTime="2.02" meanTravelTime="35.61" duration="3"/>
    <step time="99.00" loaded="654" inserted="300" running="235" waiting="26" ended="65" meanWaitingTime="2.03" meanTravelTime="37.68" duration="3"/>
    <step time="100.00" loaded="654" inserted="302" running="235" waiting="28" ended="67" meanWaitingTime="2.02" meanTravelTime="38.37" duration="3"/>
    <step time="101.00" loaded="654" inserted="308" running="240" waiting="26" ended="68" meanWaitingTime="2.19" meanTravelTime="38.63" duration="3"/>
    <step time="102.00" loaded="654" inserted="308" running="239" waiting="27" ended="69" meanWaitingTime="2.19" meanTravelTime="39.26" duration="3"/>
    <step time="103.00" loaded="654" inserted="311" running="241" waiting="27" ended="70" meanWaitingTime="2.17" meanTravelTime="39.70" duration="2"/>
    <step time="104.00" loaded="654" inserted="316" running="244" waiting="27" ended="72" meanWaitingTime="2.34" meanTravelTime="39.58" duration="3"/>
    <step time="105.00" loaded="654" inserted="319" running="247" waiting="26" ended="72" meanWaitingTime="2.51" meanTravelTime="39.58" duration="2"/>
    <step time="106.00" loaded="654" inserted="319" running="243" waiting="26" ended="76" meanWaitingTime="2.51" meanTravelTime="39.76" duration="3"/>
    <step time="107.00" loaded="654" inserted="322" running="246" waiting="28" ended="76" meanWaitingTime="2.48" meanTravelTime="39.76" duration="3"/>
    <step time="108.00" loaded="654" inserted="333" running="254" waiting="26" ended="79" meanWaitingTime="2.59" meanTravelTime="41.29" duration="3"/>
    <step time="109.00" loaded="654" inserted="336" running="255" waiting="26" ended="81" meanWaitingTime="2.74" meanTravelTime="41.98" duration="4"/>
    <step time="110.00" loaded="654" inserted="338" running="256" waiting="25" ended="82" meanWaitingTime="2.81" meanTravelTime="42.27" duration="3"/>
    <step time="111.00" loaded="654" inserted="342" running="258" waiting="27" ended="84" meanWaitingTime="2.77" meanTravelTime="43.20" duration="3"/>
    <step time="112.00" loaded="654" inserted="347" running="261" waiting="25" ended="86" meanWaitingTime="2.90" meanTravelTime="43.49" duration="4"/>
    <step time="113.00" loaded="654" inserted="349" running="261" waiting="25" ended="88" meanWaitingTime="2.96" meanTravelTime="43.83" duration="3"/>
    <step time="114.00" loaded="654" inserted="351" running="259" waiting="25" ended="92" meanWaitingTime="3.01" meanTravelTime="44.22" duration="4"/>
    <step time="115.00" loaded="654" inserted="355" running="263" waiting="25" ended="92" meanWaitingTime="3.12" meanTravelTime="44.22" duration="3"/>
    <step time="116.00" loaded="654" inserted="357" running="264" waiting="26" ended="93" meanWaitingTime="3.10" meanTravelTime="44.02" duration="3"/>
    <step time="117.00" loaded="654" inserted="359" running="265" waiting="25" ended="94" meanWaitingTime="3.15" meanTravelTime="43.81" duration="3"/>
    <step time="118.00" loaded="654" inserted="362" running="266" waiting="26" ended="96" meanWaitingTime="3.21" meanTravelTime="44.44" duration="4"/>
    <step time="119.00" loaded="654" inserted="363" running="266" waiting="26" ended="97" meanWaitingTime="3.28" meanTravelTime="44.84" duration="4"/>
    <step time="120.00" loaded="654" inserted="367" running="269" waiting="25" ended="98" meanWaitingTime="3.34" meanTravelTime="44.50" duration="4"/>
    <step time="121.00" loaded="654" inserted="370" running="272" waiting="25" ended="98" meanWaitingTime="3.37" meanTravelTime="44.50" duration="4"/>
    <step time="122.00" loaded="654" inserted="373" running="272" waiting="26" ended="101" meanWaitingTime="3.43" meanTravelTime="44.55" duration="3"/>
    <step time="123.00" loaded="654" inserted="378" running="275" waiting="25" ended="103" meanWaitingTime="3.49" meanTravelTime="44.00" duration="4"/>
    <step time="124.00" loaded="654" inserted="382" running="274" waiting="23" ended="108" meanWaitingTime="3.52" meanTravelTime="44.81" duration="3"/>
    <step time="125.00" loaded="654" inserted="383" running="272" waiting="23" ended="111" meanWaitingTime="3.55" meanTravelTime="44.96" duration="3"/>
    <step time="126.00" loaded="654" inserted="392" running="281" waiting="24" ended="111" meanWaitingTime="3.47" meanTravelTime="44.96" duration="4"/>
    <step time="127.00" loaded="654" inserted="394" running="277" waiting="25" ended="117" meanWaitingTime="3.54" meanTravelTime="47.03" duration="3"/>
    <step time="128.00" loaded="654" inserted="399" running="281" waiting="22" ended="118" meanWaitingTime="3.63" meanTravelTime="46.75" duration="4"/>
    <step time="129.00" loaded="654" inserted="403" running="283" waiting="21" ended="120" meanWaitingTime="3.63" meanTravelTime="47.61" duration="3"/>
    <step time="130.00" loaded="654" inserted="407" running="282" waiting="22" ended="125" meanWaitingTime="3.59" meanTravelTime="48.60" duration="4"/>
    <step time="131.00" loaded="654" inserted="409" running="283" waiting="23" ended="126" meanWaitingTime="3.66" meanTravelTime="48.59" duration="5"/>
    <step time="132.00" loaded="654" inserted="413" running="284" waiting="21" ended="129" meanWaitingTime="3.74" meanTravelTime="48.50" duration="3"/>
    <step time="133.00" loaded="654" inserted="416" running="281" waiting="21" ended="135" meanWaitingTime="3.74" meanTravelTime="48.94" duration="3"/>
    <step time="134.00" loaded="654" inserted="419" running="283" waiting="21" ended="136" meanWaitingTime="3.73" meanTravelTime="48.88" duration="4"/>
    <step time="135.00" loaded="654" inserted="421" running="282" waiting="20" ended="139" meanWaitingTime="3.79" meanTravelTime="49.09" duration="3"/>
    <step time="136.00" loaded="654" inserted="423" running="280" waiting="21" ended="143" meanWaitingTime="3.77" meanTravelTime="49.40" duration="5"/>
    <step time="137.00" loaded="654" inserted="427" running="282" waiting="21" ended="145" meanWaitingTime="3.75" meanTravelTime="49.06" duration="4"/>
    <step time="138.00" loaded="654" inserted="429" running="281" waiting="21" ended="148" meanWaitingTime="3.81" meanTravelTime="48.89" duration="6"/>
    <step time="139.00" loaded="654" inserted="432" running="283" waiting="20" ended="149" meanWaitingTime="3.80" meanTravelTime="48.86" duration="4"/>
    <step time="140.00" loaded="654" inserted="434" running="281" waiting="21" ended="153" meanWaitingTime="3.78" meanTravelTime="49.32" duration="5"/>
    <step time="141.00" loaded="654" inserted="437" running="279" waiting="22" ended="158" meanWaitingTime="3.84" meanTravelTime="49.42" duration="4"/>
    <step time="142.00" loaded="654" inserted="438" running="279" waiting="22" ended="159" meanWaitingTime="3.83" meanTravelTime="49.98" duration="4"/>
    <step time="143.00" loaded="654" inserted="441" running="281" waiting="23" ended="160" meanWaitingTime="3.80" meanTravelTime="49.74" duration="3"/>
    <step time="144.00" loaded="654" inserted="453" running="286" waiting="23" ended="167" meanWaitingTime="3.79" meanTravelTime="50.80" duration="4"/>
    <step time="145.00" loaded="654" inserted="455" running="283" waiting="23" ended="172" meanWaitingTime="3.85" meanTravelTime="51.05" duration="4"/>
    <step time="146.00" loaded="654" inserted="456" running="281" waiting="23" ended="175" meanWaitingTime="3.84" meanTravelTime="51.22" duration="4"/>
    <step time="147.00" loaded="654" inserted="459" running="281" waiting="24" ended="178" meanWaitingTime="3.81" meanTravelTime="51.84" duration="4"/>
    <step time="148.00" loaded="654" inserted="462" running="279" waiting="24" ended="183" meanWaitingTime="3.87" meanTravelTime="51.41" duration="5"/>
    <step time="149.00" loaded="654" inserted="463" running="278" waiting="25" ended="185" meanWaitingTime="3.86" meanTravelTime="51.38" duration="3"/>
    <step time="150.00" loaded="654" inserted="464" running="276" waiting="26" ended="188" meanWaitingTime="3.85" meanTravelTime="52.18" duration="5"/>
    <step time="151.00" loaded="654" inserted="467" running="277" waiting="26" ended="190" meanWaitingTime="3.83" meanTravelTime="52.43" duration="3"/>
    <step time="152.00" loaded="654" inserted="471" running="279" waiting="27" ended="192" meanWaitingTime="3.88" meanTravelTime="52.89" duration="4"/>
    <step time="153.00" loaded="654" inserted="473" running="278" waiting="26" ended="195" meanWaitingTime="3.95" meanTravelTime="52.60" duration="4"/>
    <step time="154.00" loaded="654" inserted="473" running="277" waiting="27" ended="196" meanWaitingTime="3.95" meanTravelTime="52.68" duration="3"/>
    <step time="155.00" loaded="654" inserted="477" running="281" waiting="27" ended="196" meanWaitingTime="3.91" meanTravelTime="52.68" duration="4"/>
    <step time="156.00" loaded="654" inserted="479" running="281" waiting="29" ended="198" meanWaitingTime="3.90" meanTravelTime="52.69" duration="3"/>
    <step time="157.00" loaded="654" inserted="482" running="283" waiting="28" ended="199" meanWaitingTime="3.96" meanTravelTime="52.55" duration="3"/>
    <step time="158.00" loaded="654" inserted="483" running="282" waiting="28" ended="201" meanWaitingTime="4.03" meanTravelTime="52.22" duration="4"/>
    <step time="159.00" loaded="654" inserted="486" running="284" waiting="30" ended="202" meanWaitingTime="4.01" meanTravelTime="52.35" duration="3"/>
    <step time="160.00" loaded="654" inserted="490" running="288" waiting="30" ended="202" meanWaitingTime="3.97" meanTravelTime="52.35" duration="3"/>
    <step time="161.00" loaded="654" inserted="492" running="290" waiting="30" ended="202" meanWaitingTime="4.04" meanTravelTime="52.35" duration="3"/>
    <step time="162.00" loaded="654" inserted="500" running="297" waiting="30" ended="203" meanWaitingTime="3.98" meanTravelTime="52.27" duration="4"/>
    <step time="163.00" loaded="654" inserted="504" running="300" waiting="31" ended="204" meanWaitingTime="4.03" meanTravelTime="52.13" duration="4"/>
    <step time="164.00" loaded="654" inserted="508" running="304" waiting="30" ended="204" meanWaitingTime="4.07" meanTravelTime="52.13" duration="4"/>
    <step time="165.00" loaded="654" inserted="508" running="304" waiting="31" ended="204" meanWaitingTime="4.07" meanTravelTime="52.13" duration="4"/>
    <step time="166.00" loaded="654" inserted="510" running="305" waiting="31" ended="205" meanWaitingTime="4.06" meanTravelTime="51.99" duration="3"/>
    <step time="167.00" loaded="654" inserted="513" running="307" waiting="32" ended="206" meanWaitingTime="4.12" meanTravelTime="52.28" duration="4"/>
    <step time="168.00" loaded="654" inserted="517" running="310" waiting="32" ended="207" meanWaitingTime="4.16" meanTravelTime="52.21" duration="4"/>
    <step time="169.00" loaded="654" inserted="519" running="311" waiting="31" ended="208" meanWaitingTime="4.23" meanTravelTime="52.43" duration="4"/>
    <step time="170.00" loaded="654" inserted="521" running="313" waiting="33" ended="208" meanWaitingTime="4.21" meanTravelTime="52.43" duration="4"/>
    <step time="171.00" loaded="654" inserted="524" running="315" waiting="32" ended="209" meanWaitingTime="4.26" meanTravelTime="52.56" duration="4"/>
    <step time="172.00" loaded="654" inserted="527" running="315" waiting="33" ended="212" meanWaitingTime="4.24" meanTravelTime="53.00" duration="3"/>
    <step time="173.00" loaded="654" inserted="529" running="314" waiting="33" ended="215" meanWaitingTime="4.22" meanTravelTime="53.22" duration="5"/>
    <step time="174.00" loaded="654" inserted="532" running="315" waiting="34" ended="217" meanWaitingTime="4.28" meanTravelTime="53.71" duration="4"/>
    <step time="175.00" loaded="654" inserted="534" running="315" waiting="33" ended="219" meanWaitingTime="4.34" meanTravelTime="53.91" duration="4"/>
    <step time="176.00" loaded="654" inserted="537" running="316" waiting="34" ended="221" meanWaitingTime="4.31" meanTravelTime="54.38" duration="4"/>
    <step time="177.00" loaded="654" inserted="538" running="316" waiting="35" ended="222" meanWaitingTime="4.30" meanTravelTime="54.28" duration="4"/>
    <step time="178.00" loaded="654" inserted="541" running="315" waiting="35" ended="226" meanWaitingTime="4.36" meanTravelTime="54.73" duration="4"/>
    <step time="179.00" loaded="654" inserted="542" running="315" waiting="36" ended="227" meanWaitingTime="4.35" meanTravelTime="54.71" duration="4"/>
    <step time="180.00" loaded="654" inserted="549" running="321" waiting="37" ended="228" meanWaitingTime="4.30" meanTravelTime="54.63" duration="7"/>
    <step time="181.00" loaded="654" inserted="554" running="324" waiting="38" ended="230" meanWaitingTime="4.26" meanTravelTime="54.81" duration="4"/>
    <step time="182.00" loaded="654" inserted="558" running="326" waiting="38" ended="232" meanWaitingTime="4.30" meanTravelTime="55.08" duration="3"/>
    <step time="183.00" loaded="654" inserted="560" running="326" waiting="38" ended="234" meanWaitingTime="4.37" meanTravelTime="55.15" duration="5"/>
    <step time="184.00" loaded="654" inserted="561" running="325" waiting="39" ended="236" meanWaitingTime="4.36" meanTravelTime="54.93" duration="3"/>
    <step time="185.00" loaded="654" inserted="563" running="325" waiting="40" ended="238" meanWaitingTime="4.34" meanTravelTime="54.95" duration="4"/>
    <step time="186.00" loaded="654" inserted="565" running="326" waiting="41" ended="239" meanWaitingTime="4.33" meanTravelTime="54.82" duration="4"/>
    <step time="187.00" loaded="654" inserted="566" running="322" waiting="40" ended="244" meanWaitingTime="4.40" meanTravelTime="54.73" duration="4"/>