<?xml version="1.0" encoding="UTF-8"?>

<!-- generated on 4/20/2016 10:52:58 AM by SUMO gui Version 0.24.0
<?xml version="1.0" encoding="UTF-8"?>

<configuration xmlns:xsi="http://www.w3.org/2001/XMLSchema-instance" xsi:noNamespaceSchemaLocation="http://sumo.dlr.de/xsd/sumo-gui.exeConfiguration.xsd">

    <input>
        <net-file value="C:\Users\Xavier\Dropbox\Courses\Fall\ME%20199%20-%20Final%20Year%20Project\Sumo%20Projects\Huntington%20Colorado\Version%205\huntingtonColorado.net.xml"/>
        <route-files value="C:\Users\Xavier\Dropbox\Courses\Fall\ME%20199%20-%20Final%20Year%20Project\Sumo%20Projects\Huntington%20Colorado\Version%205\huntingtonColorado_exp.rou.xml"/>
        <additional-files value="C:\Users\Xavier\Dropbox\Courses\Fall\ME%20199%20-%20Final%20Year%20Project\Sumo%20Projects\Huntington%20Colorado\Version%205\huntingtonColoradoMyAdd.add.xml"/>
    </input>

    <output>
        <tripinfo-output value="tripinfo.xml"/>
        <save-state.prefix value="C:\Users\Xavier\Dropbox\Courses\Fall\ME%20199%20-%20Final%20Year%20Project\Sumo%20Projects\Huntington%20Colorado\Version%205\state"/>
    </output>

    <time>
        <begin value="0"/>
    </time>

    <processing>
        <time-to-teleport value="-1"/>
    </processing>

    <emissions>
        <phemlight-path value="C:\Users\Xavier\Dropbox\Courses\Fall\ME%20199%20-%20Final%20Year%20Project\Sumo%20Projects\Huntington%20Colorado\Version%205\./PHEMlight/"/>
    </emissions>

    <traci_server>
        <remote-port value="8873"/>
    </traci_server>

</configuration>
-->

<tripinfos xmlns:xsi="http://www.w3.org/2001/XMLSchema-instance" xsi:noNamespaceSchemaLocation="http://sumo.dlr.de/xsd/tripinfo_file.xsd">
    <tripinfo id="type7.0" depart="0.00" departLane="44to43_0" departPos="5.10" departSpeed="0.00" departDelay="0.00" arrival="21.00" arrivalLane="43to45_0" arrivalPos="95.42" arrivalSpeed="13.49" duration="21.00" routeLength="232.69" waitSteps="0" timeLoss="3.60" rerouteNo="0" devices="tripinfo_type7.0" vType="DEFAULT_VEHTYPE@type7.0" vaporized=""/>
    <tripinfo id="type10.0" depart="0.00" departLane="48to47_0" departPos="5.10" departSpeed="0.00" departDelay="0.00" arrival="24.00" arrivalLane="47to49_0" arrivalPos="126.13" arrivalSpeed="13.00" duration="24.00" routeLength="270.12" waitSteps="0" timeLoss="4.44" rerouteNo="0" devices="tripinfo_type10.0" vType="DEFAULT_VEHTYPE@type10.0" vaporized=""/>
    <tripinfo id="type9.1" depart="3.00" departLane="49to47_0" departPos="5.10" departSpeed="0.00" departDelay="-0.71" arrival="26.00" arrivalLane="47to48_0" arrivalPos="121.85" arrivalSpeed="13.22" duration="23.00" routeLength="270.12" waitSteps="0" timeLoss="3.61" rerouteNo="0" devices="tripinfo_type9.1" vType="DEFAULT_VEHTYPE@type9.1" vaporized=""/>
    <tripinfo id="type8.0" depart="0.00" departLane="45to43_0" departPos="5.10" departSpeed="0.00" departDelay="0.00" arrival="27.00" arrivalLane="40to41_0" arrivalPos="23.24" arrivalSpeed="13.53" duration="27.00" routeLength="279.54" waitSteps="0" timeLoss="6.58" rerouteNo="0" devices="tripinfo_type8.0" vType="DEFAULT_VEHTYPE@type8.0" vaporized=""/>
    <tripinfo id="type7.2" depart="7.00" departLane="44to43_0" departPos="5.10" departSpeed="0.00" departDelay="-0.43" arrival="28.00" arrivalLane="43to45_0" arrivalPos="95.42" arrivalSpeed="13.05" duration="21.00" routeLength="232.69" waitSteps="0" timeLoss="3.66" rerouteNo="0" devices="tripinfo_type7.2" vType="DEFAULT_VEHTYPE@type7.2" vaporized=""/>
    <tripinfo id="type10.2" depart="7.00" departLane="48to47_0" departPos="5.10" departSpeed="0.00" departDelay="-0.95" arrival="30.00" arrivalLane="47to49_0" arrivalPos="126.13" arrivalSpeed="13.80" duration="23.00" routeLength="270.12" waitSteps="0" timeLoss="3.15" rerouteNo="0" devices="tripinfo_type10.2" vType="DEFAULT_VEHTYPE@type10.2" vaporized=""/>
    <tripinfo id="type9.2" depart="7.00" departLane="49to47_0" departPos="5.10" departSpeed="0.00" departDelay="-0.43" arrival="31.00" arrivalLane="47to48_0" arrivalPos="121.85" arrivalSpeed="13.92" duration="24.00" routeLength="270.12" waitSteps="0" timeLoss="4.48" rerouteNo="0" devices="tripinfo_type9.2" vType="DEFAULT_VEHTYPE@type9.2" vaporized=""/>
    <tripinfo id="type7.3" depart="11.00" departLane="44to43_0" departPos="5.10" departSpeed="0.00" departDelay="-0.15" arrival="33.00" arrivalLane="43to45_0" arrivalPos="95.42" arrivalSpeed="13.57" duration="22.00" routeLength="232.69" waitSteps="0" timeLoss="5.25" rerouteNo="0" devices="tripinfo_type7.3" vType="DEFAULT_VEHTYPE@type7.3" vaporized=""/>
    <tripinfo id="type13.1" depart="7.00" departLane="61to60_0" departPos="5.10" departSpeed="0.00" departDelay="-0.24" arrival="34.00" arrivalLane="64to66_0" arrivalPos="23.81" arrivalSpeed="12.83" duration="27.00" routeLength="289.79" waitSteps="0" timeLoss="5.21" rerouteNo="0" devices="tripinfo_type13.1" vType="DEFAULT_VEHTYPE@type13.1" vaporized=""/>
    <tripinfo id="type9.3" depart="11.00" departLane="49to47_0" departPos="5.10" departSpeed="0.00" departDelay="-0.15" arrival="35.00" arrivalLane="47to48_0" arrivalPos="121.85" arrivalSpeed="13.48" duration="24.00" routeLength="270.12" waitSteps="0" timeLoss="3.74" rerouteNo="0" devices="tripinfo_type9.3" vType="DEFAULT_VEHTYPE@type9.3" vaporized=""/>
    <tripinfo id="type10.3" depart="11.00" departLane="48to47_0" departPos="5.10" departSpeed="0.00" departDelay="-0.93" arrival="35.00" arrivalLane="47to49_0" arrivalPos="126.13" arrivalSpeed="12.98" duration="24.00" routeLength="270.12" waitSteps="0" timeLoss="3.82" rerouteNo="0" devices="tripinfo_type10.3" vType="DEFAULT_VEHTYPE@type10.3" vaporized=""/>
    <tripinfo id="type9.4" depart="14.00" departLane="49to47_0" departPos="5.10" departSpeed="0.00" departDelay="-0.86" arrival="37.00" arrivalLane="47to48_0" arrivalPos="121.85" arrivalSpeed="12.92" duration="23.00" routeLength="270.12" waitSteps="0" timeLoss="3.42" rerouteNo="0" devices="tripinfo_type9.4" vType="DEFAULT_VEHTYPE@type9.4" vaporized=""/>
    <tripinfo id="type8.1" depart="12.00" departLane="45to43_0" departPos="5.10" departSpeed="0.00" departDelay="-0.12" arrival="38.00" arrivalLane="40to41_0" arrivalPos="23.24" arrivalSpeed="13.61" duration="26.00" routeLength="279.54" waitSteps="0" timeLoss="5.79" rerouteNo="0" devices="tripinfo_type8.1" vType="DEFAULT_VEHTYPE@type8.1" vaporized=""/>
    <tripinfo id="type10.4" depart="15.00" departLane="48to47_0" departPos="5.10" departSpeed="0.00" departDelay="-0.91" arrival="39.00" arrivalLane="47to49_0" arrivalPos="126.13" arrivalSpeed="13.83" duration="24.00" routeLength="270.12" waitSteps="0" timeLoss="3.98" rerouteNo="0" devices="tripinfo_type10.4" vType="DEFAULT_VEHTYPE@type10.4" vaporized=""/>
    <tripinfo id="type9.5" depart="18.00" departLane="49to47_0" departPos="5.10" departSpeed="0.00" departDelay="-0.57" arrival="42.00" arrivalLane="47to48_0" arrivalPos="121.85" arrivalSpeed="13.19" duration="24.00" routeLength="270.12" waitSteps="0" timeLoss="4.17" rerouteNo="0" devices="tripinfo_type9.5" vType="DEFAULT_VEHTYPE@type9.5" vaporized=""/>
    <tripinfo id="type12.0" depart="0.00" departLane="53to52_0" departPos="5.10" departSpeed="0.00" departDelay="0.00" arrival="50.00" arrivalLane="52to54_0" arrivalPos="39.70" arrivalSpeed="13.21" duration="50.00" routeLength="116.16" waitSteps="31" timeLoss="41.04" rerouteNo="0" devices="tripinfo_type12.0" vType="DEFAULT_VEHTYPE@type12.0" vaporized=""/>
    <tripinfo id="type11.1" depart="18.00" departLane="54to52_0" departPos="5.10" departSpeed="0.00" departDelay="0.00" arrival="51.00" arrivalLane="52to53_0" arrivalPos="58.66" arrivalSpeed="12.80" duration="33.00" routeLength="116.10" waitSteps="14" timeLoss="24.02" rerouteNo="0" devices="tripinfo_type11.1" vType="DEFAULT_VEHTYPE@type11.1" vaporized=""/>
    <tripinfo id="type12.1" depart="18.00" departLane="53to52_0" departPos="5.10" departSpeed="0.00" departDelay="0.00" arrival="52.00" arrivalLane="52to54_0" arrivalPos="39.70" arrivalSpeed="12.76" duration="34.00" routeLength="116.16" waitSteps="15" timeLoss="24.86" rerouteNo="0" devices="tripinfo_type12.1" vType="DEFAULT_VEHTYPE@type12.1" vaporized=""/>
    <tripinfo id="type14.0" depart="0.00" departLane="59to58_0" departPos="5.10" departSpeed="0.00" departDelay="0.00" arrival="53.00" arrivalLane="60to61_0" arrivalPos="43.94" arrivalSpeed="12.95" duration="53.00" routeLength="200.25" waitSteps="28" timeLoss="38.39" rerouteNo="0" devices="tripinfo_type14.0" vType="DEFAULT_VEHTYPE@type14.0" vaporized=""/>
    <tripinfo id="type14.1" depart="8.00" departLane="59to58_0" departPos="5.10" departSpeed="0.00" departDelay="-0.63" arrival="53.00" arrivalLane="60to61_1" arrivalPos="43.94" arrivalSpeed="13.80" duration="45.00" routeLength="200.25" waitSteps="18" timeLoss="29.78" rerouteNo="0" devices="tripinfo_type14.1" vType="DEFAULT_VEHTYPE@type14.1" vaporized=""/>
    <tripinfo id="type11.2" depart="36.00" departLane="54to52_0" departPos="5.10" departSpeed="0.00" departDelay="0.00" arrival="53.00" arrivalLane="52to53_0" arrivalPos="58.66" arrivalSpeed="13.60" duration="17.00" routeLength="116.10" waitSteps="0" timeLoss="7.88" rerouteNo="0" devices="tripinfo_type11.2" vType="DEFAULT_VEHTYPE@type11.2" vaporized=""/>
    <tripinfo id="type14.2" depart="17.00" departLane="59to58_0" departPos="5.10" departSpeed="0.00" departDelay="-0.27" arrival="55.00" arrivalLane="60to61_0" arrivalPos="43.94" arrivalSpeed="12.78" duration="38.00" routeLength="200.25" waitSteps="12" timeLoss="23.24" rerouteNo="0" devices="tripinfo_type14.2" vType="DEFAULT_VEHTYPE@type14.2" vaporized=""/>
    <tripinfo id="type14.3" depart="25.00" departLane="59to58_0" departPos="5.10" departSpeed="0.00" departDelay="-0.90" arrival="55.00" arrivalLane="60to61_1" arrivalPos="43.94" arrivalSpeed="13.93" duration="30.00" routeLength="200.25" waitSteps="4" timeLoss="14.83" rerouteNo="0" devices="tripinfo_type14.3" vType="DEFAULT_VEHTYPE@type14.3" vaporized=""/>
    <tripinfo id="type14.4" depart="34.00" departLane="59to58_0" departPos="5.10" departSpeed="0.00" departDelay="-0.53" arrival="57.00" arrivalLane="60to61_0" arrivalPos="43.94" arrivalSpeed="12.89" duration="23.00" routeLength="200.25" waitSteps="0" timeLoss="8.23" rerouteNo="0" devices="tripinfo_type14.4" vType="DEFAULT_VEHTYPE@type14.4" vaporized=""/>
    <tripinfo id="type20.1" depart="10.00" departLane="75to73_0" departPos="5.10" departSpeed="0.00" departDelay="-0.11" arrival="60.00" arrivalLane="81to83_0" arrivalPos="147.08" arrivalSpeed="13.74" duration="50.00" routeLength="490.24" waitSteps="3" timeLoss="12.94" rerouteNo="0" devices="tripinfo_type20.1" vType="DEFAULT_VEHTYPE@type20.1" vaporized=""/>
    <tripinfo id="type0.8" depart="23.00" departLane="2to14_0" departPos="5.10" departSpeed="0.00" departDelay="8.63" arrival="60.00" arrivalLane="17to3_0" arrivalPos="195.31" arrivalSpeed="13.78" duration="37.00" routeLength="444.80" waitSteps="0" timeLoss="4.59" rerouteNo="0" devices="tripinfo_type0.8" vType="DEFAULT_VEHTYPE@type0.8" vaporized=""/>
    <tripinfo id="type13.2" depart="14.00" departLane="61to60_0" departPos="5.10" departSpeed="0.00" departDelay="-0.49" arrival="60.00" arrivalLane="69to71_0" arrivalPos="45.46" arrivalSpeed="13.72" duration="46.00" routeLength="521.65" waitSteps="0" timeLoss="7.25" rerouteNo="0" devices="tripinfo_type13.2" vType="DEFAULT_VEHTYPE@type13.2" vaporized=""/>
    <tripinfo id="type20.2" depart="20.00" departLane="75to73_0" departPos="5.10" departSpeed="0.00" departDelay="-0.22" arrival="61.00" arrivalLane="81to83_1" arrivalPos="147.08" arrivalSpeed="12.72" duration="41.00" routeLength="490.24" waitSteps="0" timeLoss="4.65" rerouteNo="0" devices="tripinfo_type20.2" vType="DEFAULT_VEHTYPE@type20.2" vaporized=""/>
    <tripinfo id="type13.6" depart="43.00" departLane="61to60_0" departPos="5.10" departSpeed="0.00" departDelay="-0.46" arrival="63.00" arrivalLane="58to59_0" arrivalPos="53.98" arrivalSpeed="13.77" duration="20.00" routeLength="206.22" waitSteps="0" timeLoss="4.67" rerouteNo="0" devices="tripinfo_type13.6" vType="DEFAULT_VEHTYPE@type13.6" vaporized=""/>
    <tripinfo id="type22.6" depart="19.00" departLane="83to81_0" departPos="5.10" departSpeed="0.00" departDelay="-0.63" arrival="65.00" arrivalLane="81to82_0" arrivalPos="117.39" arrivalSpeed="12.92" duration="46.00" routeLength="267.26" waitSteps="9" timeLoss="26.21" rerouteNo="0" devices="tripinfo_type22.6" vType="DEFAULT_VEHTYPE@type22.6" vaporized=""/>
    <tripinfo id="type21.3" depart="19.00" departLane="82to81_0" departPos="5.10" departSpeed="0.00" departDelay="-0.46" arrival="65.00" arrivalLane="69to70_0" arrivalPos="46.20" arrivalSpeed="13.13" duration="46.00" routeLength="575.72" waitSteps="0" timeLoss="4.71" rerouteNo="0" devices="tripinfo_type21.3" vType="DEFAULT_VEHTYPE@type21.3" vaporized=""/>
    <tripinfo id="type22.10" depart="32.00" departLane="83to81_0" departPos="5.10" departSpeed="0.00" departDelay="-0.72" arrival="67.00" arrivalLane="81to82_0" arrivalPos="117.39" arrivalSpeed="13.51" duration="35.00" routeLength="267.26" waitSteps="4" timeLoss="15.05" rerouteNo="0" devices="tripinfo_type22.10" vType="DEFAULT_VEHTYPE@type22.10" vaporized=""/>
    <tripinfo id="type22.11" depart="35.00" departLane="83to81_0" departPos="5.10" departSpeed="0.00" departDelay="-0.99" arrival="69.00" arrivalLane="81to82_0" arrivalPos="117.39" arrivalSpeed="13.77" duration="34.00" routeLength="267.26" waitSteps="1" timeLoss="14.07" rerouteNo="0" devices="tripinfo_type22.11" vType="DEFAULT_VEHTYPE@type22.11" vaporized=""/>
    <tripinfo id="type11.3" depart="54.00" departLane="54to52_0" departPos="5.10" departSpeed="0.00" departDelay="0.00" arrival="69.00" arrivalLane="52to53_0" arrivalPos="58.66" arrivalSpeed="13.93" duration="15.00" routeLength="116.10" waitSteps="0" timeLoss="5.77" rerouteNo="0" devices="tripinfo_type11.3" vType="DEFAULT_VEHTYPE@type11.3" vaporized=""/>
    <tripinfo id="type10.7" depart="27.00" departLane="48to47_0" departPos="5.10" departSpeed="0.00" departDelay="-0.84" arrival="71.00" arrivalLane="43to45_0" arrivalPos="95.42" arrivalSpeed="12.76" duration="44.00" routeLength="542.41" waitSteps="0" timeLoss="4.73" rerouteNo="0" devices="tripinfo_type10.7" vType="DEFAULT_VEHTYPE@type10.7" vaporized=""/>
    <tripinfo id="type14.6" depart="51.00" departLane="59to58_0" departPos="5.10" departSpeed="0.00" departDelay="-0.80" arrival="72.00" arrivalLane="60to61_0" arrivalPos="43.94" arrivalSpeed="13.64" duration="21.00" routeLength="200.25" waitSteps="0" timeLoss="6.67" rerouteNo="0" devices="tripinfo_type14.6" vType="DEFAULT_VEHTYPE@type14.6" vaporized=""/>
    <tripinfo id="type17.0" depart="0.00" departLane="71to69_0" departPos="5.10" departSpeed="0.00" departDelay="0.00" arrival="72.00" arrivalLane="81to83_0" arrivalPos="147.08" arrivalSpeed="13.02" duration="72.00" routeLength="610.01" waitSteps="14" timeLoss="28.04" rerouteNo="0" devices="tripinfo_type17.0" vType="DEFAULT_VEHTYPE@type17.0" vaporized=""/>
    <tripinfo id="type22.13" depart="42.00" departLane="83to81_0" departPos="5.10" departSpeed="0.00" departDelay="-0.54" arrival="72.00" arrivalLane="81to82_0" arrivalPos="117.39" arrivalSpeed="13.81" duration="30.00" routeLength="267.26" waitSteps="0" timeLoss="10.39" rerouteNo="0" devices="tripinfo_type22.13" vType="DEFAULT_VEHTYPE@type22.13" vaporized=""/>
    <tripinfo id="type14.5" depart="43.00" departLane="59to58_0" departPos="5.10" departSpeed="0.00" departDelay="-0.16" arrival="73.00" arrivalLane="64to66_0" arrivalPos="23.81" arrivalSpeed="13.01" duration="30.00" routeLength="304.40" waitSteps="0" timeLoss="6.10" rerouteNo="0" devices="tripinfo_type14.5" vType="DEFAULT_VEHTYPE@type14.5" vaporized=""/>
    <tripinfo id="type22.17" depart="55.00" departLane="83to81_0" departPos="5.10" departSpeed="0.00" departDelay="-0.62" arrival="79.00" arrivalLane="81to82_0" arrivalPos="117.39" arrivalSpeed="13.51" duration="24.00" routeLength="267.26" waitSteps="0" timeLoss="4.78" rerouteNo="0" devices="tripinfo_type22.17" vType="DEFAULT_VEHTYPE@type22.17" vaporized=""/>
    <tripinfo id="type15.1" depart="18.00" departLane="66to64_0" departPos="5.10" departSpeed="0.00" departDelay="0.00" arrival="82.00" arrivalLane="81to83_0" arrivalPos="147.08" arrivalSpeed="13.76" duration="64.00" routeLength="802.18" waitSteps="0" timeLoss="6.55" rerouteNo="0" devices="tripinfo_type15.1" vType="DEFAULT_VEHTYPE@type15.1" vaporized=""/>
    <tripinfo id="type15.0" depart="0.00" departLane="66to64_0" departPos="5.10" departSpeed="0.00" departDelay="0.00" arrival="83.00" arrivalLane="60to61_1" arrivalPos="43.94" arrivalSpeed="13.90" duration="83.00" routeLength="282.14" waitSteps="49" timeLoss="59.64" rerouteNo="0" devices="tripinfo_type15.0" vType="DEFAULT_VEHTYPE@type15.0" vaporized=""/>
    <tripinfo id="type13.0" depart="0.00" departLane="61to60_0" departPos="5.10" departSpeed="0.00" departDelay="0.00" arrival="84.00" arrivalLane="81to83_1" arrivalPos="147.08" arrivalSpeed="12.86" duration="84.00" routeLength="1046.59" waitSteps="0" timeLoss="7.59" rerouteNo="0" devices="tripinfo_type13.0" vType="DEFAULT_VEHTYPE@type13.0" vaporized=""/>
    <tripinfo id="type18.0" depart="0.00" departLane="70to69_0" departPos="5.10" departSpeed="0.00" departDelay="0.00" arrival="86.00" arrivalLane="60to61_1" arrivalPos="43.94" arrivalSpeed="13.26" duration="86.00" routeLength="522.68" waitSteps="33" timeLoss="46.32" rerouteNo="0" devices="tripinfo_type18.0" vType="DEFAULT_VEHTYPE@type18.0" vaporized=""/>
    <tripinfo id="type18.1" depart="18.00" departLane="70to69_0" departPos="5.10" departSpeed="0.00" departDelay="0.00" arrival="86.00" arrivalLane="69to71_0" arrivalPos="45.46" arrivalSpeed="13.08" duration="68.00" routeLength="112.86" waitSteps="50" timeLoss="59.50" rerouteNo="0" devices="tripinfo_type18.1" vType="DEFAULT_VEHTYPE@type18.1" vaporized=""/>
    <tripinfo id="type17.1" depart="18.00" departLane="71to69_0" departPos="5.10" departSpeed="0.00" departDelay="0.00" arrival="86.00" arrivalLane="69to70_0" arrivalPos="46.20" arrivalSpeed="13.65" duration="68.00" routeLength="112.63" waitSteps="50" timeLoss="59.49" rerouteNo="0" devices="tripinfo_type17.1" vType="DEFAULT_VEHTYPE@type17.1" vaporized=""/>
    <tripinfo id="type18.2" depart="36.00" departLane="70to69_0" departPos="5.10" departSpeed="0.00" departDelay="0.00" arrival="88.00" arrivalLane="69to71_0" arrivalPos="45.46" arrivalSpeed="13.34" duration="52.00" routeLength="112.86" waitSteps="34" timeLoss="43.32" rerouteNo="0" devices="tripinfo_type18.2" vType="DEFAULT_VEHTYPE@type18.2" vaporized=""/>
    <tripinfo id="type21.0" depart="0.00" departLane="82to81_0" departPos="5.10" departSpeed="0.00" departDelay="0.00" arrival="91.00" arrivalLane="60to61_1" arrivalPos="43.94" arrivalSpeed="13.64" duration="91.00" routeLength="1009.25" waitSteps="0" timeLoss="16.85" rerouteNo="0" devices="tripinfo_type21.0" vType="DEFAULT_VEHTYPE@type21.0" vaporized=""/>
    <tripinfo id="type22.21" depart="68.00" departLane="83to81_0" departPos="5.10" departSpeed="0.00" departDelay="-0.71" arrival="91.00" arrivalLane="81to82_0" arrivalPos="117.39" arrivalSpeed="13.93" duration="23.00" routeLength="267.26" waitSteps="0" timeLoss="3.85" rerouteNo="0" devices="tripinfo_type22.21" vType="DEFAULT_VEHTYPE@type22.21" vaporized=""/>
    <tripinfo id="type17.3" depart="54.00" departLane="71to69_0" departPos="5.10" departSpeed="0.00" departDelay="0.00" arrival="91.00" arrivalLane="69to70_0" arrivalPos="46.20" arrivalSpeed="13.20" duration="37.00" routeLength="112.63" waitSteps="18" timeLoss="28.81" rerouteNo="0" devices="tripinfo_type17.3" vType="DEFAULT_VEHTYPE@type17.3" vaporized=""/>
    <tripinfo id="type18.4" depart="72.00" departLane="70to69_0" departPos="5.10" departSpeed="0.00" departDelay="0.00" arrival="92.00" arrivalLane="69to71_0" arrivalPos="45.46" arrivalSpeed="13.02" duration="20.00" routeLength="112.86" waitSteps="1" timeLoss="11.46" rerouteNo="0" devices="tripinfo_type18.4" vType="DEFAULT_VEHTYPE@type18.4" vaporized=""/>
    <tripinfo id="type2.1" depart="4.00" departLane="3to17_0" departPos="5.10" departSpeed="0.00" departDelay="-0.21" arrival="93.00" arrivalLane="14to2_0" arrivalPos="224.75" arrivalSpeed="13.47" duration="89.00" routeLength="437.10" waitSteps="46" timeLoss="56.65" rerouteNo="0" devices="tripinfo_type2.1" vType="DEFAULT_VEHTYPE@type2.1" vaporized=""/>
    <tripinfo id="type21.1" depart="6.00" departLane="82to81_0" departPos="5.10" departSpeed="0.00" departDelay="-0.49" arrival="94.00" arrivalLane="60to61_1" arrivalPos="43.94" arrivalSpeed="13.10" duration="88.00" routeLength="1009.25" waitSteps="0" timeLoss="13.90" rerouteNo="0" devices="tripinfo_type21.1" vType="DEFAULT_VEHTYPE@type21.1" vaporized=""/>
    <tripinfo id="type0.21" depart="58.00" departLane="2to14_0" departPos="5.10" departSpeed="0.00" departDelay="20.28" arrival="95.00" arrivalLane="17to3_0" arrivalPos="195.31" arrivalSpeed="12.77" duration="37.00" routeLength="444.80" waitSteps="0" timeLoss="4.93" rerouteNo="0" devices="tripinfo_type0.21" vType="DEFAULT_VEHTYPE@type0.21" vaporized=""/>
    <tripinfo id="type1.12" depart="48.00" departLane="5to4_0" departPos="5.10" departSpeed="0.00" departDelay="0.00" arrival="95.00" arrivalLane="14to2_0" arrivalPos="224.75" arrivalSpeed="13.97" duration="47.00" routeLength="587.91" waitSteps="0" timeLoss="4.83" rerouteNo="0" devices="tripinfo_type1.12" vType="DEFAULT_VEHTYPE@type1.12" vaporized=""/>
    <tripinfo id="type17.4" depart="72.00" departLane="71to69_0" departPos="5.10" departSpeed="0.00" departDelay="0.00" arrival="95.00" arrivalLane="69to70_0" arrivalPos="46.20" arrivalSpeed="13.84" duration="23.00" routeLength="112.63" waitSteps="3" timeLoss="13.99" rerouteNo="0" devices="tripinfo_type17.4" vType="DEFAULT_VEHTYPE@type17.4" vaporized=""/>
    <tripinfo id="type22.18" depart="58.00" departLane="83to81_0" departPos="5.10" departSpeed="0.00" departDelay="-0.90" arrival="96.00" arrivalLane="79to80_0" arrivalPos="21.79" arrivalSpeed="13.98" duration="38.00" routeLength="442.31" waitSteps="0" timeLoss="4.52" rerouteNo="0" devices="tripinfo_type22.18" vType="DEFAULT_VEHTYPE@type22.18" vaporized=""/>
    <tripinfo id="type21.7" depart="45.00" departLane="82to81_0" departPos="5.10" departSpeed="0.00" departDelay="-0.40" arrival="102.00" arrivalLane="81to83_1" arrivalPos="147.08" arrivalSpeed="13.30" duration="57.00" routeLength="259.37" waitSteps="27" timeLoss="36.07" rerouteNo="0" devices="tripinfo_type21.7" vType="DEFAULT_VEHTYPE@type21.7" vaporized=""/>
    <tripinfo id="type18.5" depart="90.00" departLane="70to69_0" departPos="5.10" departSpeed="0.00" departDelay="0.00" arrival="103.00" arrivalLane="69to71_0" arrivalPos="45.46" arrivalSpeed="13.80" duration="13.00" routeLength="112.86" waitSteps="0" timeLoss="4.07" rerouteNo="0" devices="tripinfo_type18.5" vType="DEFAULT_VEHTYPE@type18.5" vaporized=""/>
    <tripinfo id="type21.8" depart="51.00" departLane="82to81_0" departPos="5.10" departSpeed="0.00" departDelay="-0.89" arrival="104.00" arrivalLane="81to83_1" arrivalPos="147.08" arrivalSpeed="13.11" duration="53.00" routeLength="259.37" waitSteps="22" timeLoss="31.98" rerouteNo="0" devices="tripinfo_type21.8" vType="DEFAULT_VEHTYPE@type21.8" vaporized=""/>
    <tripinfo id="type17.5" depart="90.00" departLane="71to69_0" departPos="5.10" departSpeed="0.00" departDelay="0.00" arrival="104.00" arrivalLane="69to70_0" arrivalPos="46.20" arrivalSpeed="13.51" duration="14.00" routeLength="112.63" waitSteps="0" timeLoss="5.47" rerouteNo="0" devices="tripinfo_type17.5" vType="DEFAULT_VEHTYPE@type17.5" vaporized=""/>
    <tripinfo id="type1.0" depart="0.00" departLane="5to4_0" departPos="5.10" departSpeed="0.00" departDelay="0.00" arrival="105.00" arrivalLane="17to3_0" arrivalPos="195.31" arrivalSpeed="13.25" duration="105.00" routeLength="556.98" waitSteps="53" timeLoss="64.13" rerouteNo="0" devices="tripinfo_type1.0" vType="DEFAULT_VEHTYPE@type1.0" vaporized=""/>
    <tripinfo id="type7.4" depart="14.00" departLane="44to43_0" departPos="5.10" departSpeed="0.00" departDelay="-0.86" arrival="105.00" arrivalLane="43to45_1" arrivalPos="95.42" arrivalSpeed="13.80" duration="91.00" routeLength="232.69" waitSteps="65" timeLoss="73.98" rerouteNo="0" devices="tripinfo_type7.4" vType="DEFAULT_VEHTYPE@type7.4" vaporized=""/>
    <tripinfo id="type7.5" depart="18.00" departLane="44to43_0" departPos="5.10" departSpeed="0.00" departDelay="-0.57" arrival="105.00" arrivalLane="43to45_0" arrivalPos="95.42" arrivalSpeed="13.78" duration="87.00" routeLength="232.69" waitSteps="59" timeLoss="70.04" rerouteNo="0" devices="tripinfo_type7.5" vType="DEFAULT_VEHTYPE@type7.5" vaporized=""/>
    <tripinfo id="type1.2" depart="8.00" departLane="5to4_0" departPos="5.10" departSpeed="0.00" departDelay="0.00" arrival="107.00" arrivalLane="17to3_0" arrivalPos="195.31" arrivalSpeed="13.63" duration="99.00" routeLength="556.98" waitSteps="46" timeLoss="58.26" rerouteNo="0" devices="tripinfo_type1.2" vType="DEFAULT_VEHTYPE@type1.2" vaporized=""/>
    <tripinfo id="type7.7" depart="26.00" departLane="44to43_0" departPos="5.10" departSpeed="0.00" departDelay="0.00" arrival="107.00" arrivalLane="43to45_1" arrivalPos="95.42" arrivalSpeed="13.71" duration="81.00" routeLength="232.69" waitSteps="53" timeLoss="63.91" rerouteNo="0" devices="tripinfo_type7.7" vType="DEFAULT_VEHTYPE@type7.7" vaporized=""/>
    <tripinfo id="type7.6" depart="22.00" departLane="44to43_0" departPos="5.10" departSpeed="0.00" departDelay="-0.29" arrival="107.00" arrivalLane="43to45_0" arrivalPos="95.42" arrivalSpeed="13.16" duration="85.00" routeLength="232.69" waitSteps="56" timeLoss="67.89" rerouteNo="0" devices="tripinfo_type7.6" vType="DEFAULT_VEHTYPE@type7.6" vaporized=""/>
    <tripinfo id="type11.4" depart="72.00" departLane="54to52_0" departPos="5.10" departSpeed="0.00" departDelay="0.00" arrival="108.00" arrivalLane="60to61_0" arrivalPos="43.94" arrivalSpeed="13.31" duration="36.00" routeLength="431.53" waitSteps="0" timeLoss="4.46" rerouteNo="0" devices="tripinfo_type11.4" vType="DEFAULT_VEHTYPE@type11.4" vaporized=""/>
    <tripinfo id="type1.5" depart="20.00" departLane="5to4_0" departPos="5.10" departSpeed="0.00" departDelay="0.00" arrival="109.00" arrivalLane="17to3_0" arrivalPos="195.31" arrivalSpeed="13.66" duration="89.00" routeLength="556.98" waitSteps="37" timeLoss="48.13" rerouteNo="0" devices="tripinfo_type1.5" vType="DEFAULT_VEHTYPE@type1.5" vaporized=""/>
    <tripinfo id="type7.12" depart="44.00" departLane="44to43_0" departPos="5.10" departSpeed="0.00" departDelay="-0.58" arrival="109.00" arrivalLane="43to45_1" arrivalPos="95.42" arrivalSpeed="13.86" duration="65.00" routeLength="232.69" waitSteps="36" timeLoss="48.02" rerouteNo="0" devices="tripinfo_type7.12" vType="DEFAULT_VEHTYPE@type7.12" vaporized=""/>
    <tripinfo id="type7.9" depart="33.00" departLane="44to43_0" departPos="5.10" departSpeed="0.00" departDelay="-0.44" arrival="109.00" arrivalLane="43to45_0" arrivalPos="95.42" arrivalSpeed="13.51" duration="76.00" routeLength="232.69" waitSteps="47" timeLoss="58.73" rerouteNo="0" devices="tripinfo_type7.9" vType="DEFAULT_VEHTYPE@type7.9" vaporized=""/>
    <tripinfo id="type15.5" depart="98.00" departLane="66to64_0" departPos="5.10" departSpeed="0.00" departDelay="8.00" arrival="110.00" arrivalLane="64to65_0" arrivalPos="68.54" arrivalSpeed="13.90" duration="12.00" routeLength="110.58" waitSteps="0" timeLoss="4.00" rerouteNo="0" devices="tripinfo_type15.5" vType="DEFAULT_VEHTYPE@type15.5" vaporized=""/>
    <tripinfo id="type21.6" depart="38.00" departLane="82to81_0" departPos="5.10" departSpeed="0.00" departDelay="-0.92" arrival="110.00" arrivalLane="79to80_0" arrivalPos="21.79" arrivalSpeed="13.08" duration="72.00" routeLength="422.07" waitSteps="32" timeLoss="41.60" rerouteNo="0" devices="tripinfo_type21.6" vType="DEFAULT_VEHTYPE@type21.6" vaporized=""/>
    <tripinfo id="type2.4" depart="16.00" departLane="3to17_0" departPos="5.10" departSpeed="0.00" departDelay="-0.86" arrival="111.00" arrivalLane="9to8_0" arrivalPos="19.83" arrivalSpeed="13.79" duration="95.00" routeLength="465.49" waitSteps="50" timeLoss="60.61" rerouteNo="0" devices="tripinfo_type2.4" vType="DEFAULT_VEHTYPE@type2.4" vaporized=""/>
    <tripinfo id="type7.14" depart="52.00" departLane="44to43_0" departPos="5.10" departSpeed="0.00" departDelay="-0.01" arrival="111.00" arrivalLane="43to45_1" arrivalPos="95.42" arrivalSpeed="13.42" duration="59.00" routeLength="232.69" waitSteps="31" timeLoss="41.92" rerouteNo="0" devices="tripinfo_type7.14" vType="DEFAULT_VEHTYPE@type7.14" vaporized=""/>
    <tripinfo id="type7.13" depart="48.00" departLane="44to43_0" departPos="5.10" departSpeed="0.00" departDelay="-0.30" arrival="111.00" arrivalLane="43to45_0" arrivalPos="95.42" arrivalSpeed="13.46" duration="63.00" routeLength="232.69" waitSteps="34" timeLoss="45.71" rerouteNo="0" devices="tripinfo_type7.13" vType="DEFAULT_VEHTYPE@type7.13" vaporized=""/>
    <tripinfo id="type21.13" depart="84.00" departLane="82to81_0" departPos="5.10" departSpeed="0.00" departDelay="-0.32" arrival="111.00" arrivalLane="81to83_1" arrivalPos="147.08" arrivalSpeed="13.61" duration="27.00" routeLength="259.37" waitSteps="0" timeLoss="6.60" rerouteNo="0" devices="tripinfo_type21.13" vType="DEFAULT_VEHTYPE@type21.13" vaporized=""/>
    <tripinfo id="type1.6" depart="24.00" departLane="5to4_0" departPos="5.10" departSpeed="0.00" departDelay="0.00" arrival="112.00" arrivalLane="17to3_0" arrivalPos="195.31" arrivalSpeed="13.72" duration="88.00" routeLength="556.98" waitSteps="34" timeLoss="47.13" rerouteNo="0" devices="tripinfo_type1.6" vType="DEFAULT_VEHTYPE@type1.6" vaporized=""/>
    <tripinfo id="type7.16" depart="59.00" departLane="44to43_0" departPos="5.10" departSpeed="0.00" departDelay="-0.44" arrival="113.00" arrivalLane="43to45_1" arrivalPos="95.42" arrivalSpeed="13.49" duration="54.00" routeLength="232.69" waitSteps="25" timeLoss="36.72" rerouteNo="0" devices="tripinfo_type7.16" vType="DEFAULT_VEHTYPE@type7.16" vaporized=""/>