<?xml version="1.0" encoding="UTF-8"?>

<!-- generated on 3/30/2016 11:58:29 AM by SUMO gui Version 0.24.0
<?xml version="1.0" encoding="UTF-8"?>

<configuration xmlns:xsi="http://www.w3.org/2001/XMLSchema-instance" xsi:noNamespaceSchemaLocation="http://sumo.dlr.de/xsd/sumo-gui.exeConfiguration.xsd">

    <input>
        <net-file value="C:\Users\Xavier\Dropbox\Courses\Fall\ME%20199%20-%20Final%20Year%20Project\Sumo%20Projects\Huntington%20Colorado\Version%204\huntingtonColorado.net.xml"/>
        <route-files value="C:\Users\Xavier\Dropbox\Courses\Fall\ME%20199%20-%20Final%20Year%20Project\Sumo%20Projects\Huntington%20Colorado\Version%204\huntingtonColorado_exp.rou.xml"/>
        <additional-files value="C:\Users\Xavier\Dropbox\Courses\Fall\ME%20199%20-%20Final%20Year%20Project\Sumo%20Projects\Huntington%20Colorado\Version%204\huntingtonColoradoMyAdd.add.xml"/>
    </input>

    <output>
        <summary-output value="tripinfo3.xml"/>
        <save-state.prefix value="C:\Users\Xavier\Dropbox\Courses\Fall\ME%20199%20-%20Final%20Year%20Project\Sumo%20Projects\Huntington%20Colorado\Version%204\state"/>
    </output>

    <time>
        <begin value="0"/>
    </time>

    <processing>
        <time-to-teleport value="-1"/>
    </processing>

    <emissions>
        <phemlight-path value="C:\Users\Xavier\Dropbox\Courses\Fall\ME%20199%20-%20Final%20Year%20Project\Sumo%20Projects\Huntington%20Colorado\Version%204\./PHEMlight/"/>
    </emissions>

    <traci_server>
        <remote-port value="8873"/>
    </traci_server>

</configuration>
-->

<summary xmlns:xsi="http://www.w3.org/2001/XMLSchema-instance" xsi:noNamespaceSchemaLocation="http://sumo.dlr.de/xsd/summary_file.xsd">
    <step time="0.00" loaded="21" inserted="20" running="20" waiting="0" ended="0" meanWaitingTime="0.00" meanTravelTime="-1.00" duration="0"/>
    <step time="1.00" loaded="21" inserted="20" running="20" waiting="1" ended="0" meanWaitingTime="0.00" meanTravelTime="-1.00" duration="1"/>
    <step time="2.00" loaded="654" inserted="21" running="21" waiting="0" ended="0" meanWaitingTime="0.05" meanTravelTime="-1.00" duration="1"/>
    <step time="3.00" loaded="654" inserted="25" running="25" waiting="1" ended="0" meanWaitingTime="0.04" meanTravelTime="-1.00" duration="99"/>
    <step time="4.00" loaded="654" inserted="27" running="27" waiting="1" ended="0" meanWaitingTime="0.04" meanTravelTime="-1.00" duration="1"/>
    <step time="5.00" loaded="654" inserted="28" running="28" waiting="1" ended="0" meanWaitingTime="0.11" meanTravelTime="-1.00" duration="1"/>
    <step time="6.00" loaded="654" inserted="30" running="30" waiting="1" ended="0" meanWaitingTime="0.13" meanTravelTime="-1.00" duration="1"/>
    <step time="7.00" loaded="654" inserted="35" running="35" waiting="1" ended="0" meanWaitingTime="0.14" meanTravelTime="-1.00" duration="1"/>
    <step time="8.00" loaded="654" inserted="39" running="39" waiting="1" ended="0" meanWaitingTime="0.15" meanTravelTime="-1.00" duration="1"/>
    <step time="9.00" loaded="654" inserted="39" running="38" waiting="2" ended="1" meanWaitingTime="0.15" meanTravelTime="9.00" duration="2"/>
    <step time="10.00" loaded="654" inserted="41" running="40" waiting="2" ended="1" meanWaitingTime="0.20" meanTravelTime="9.00" duration="2"/>
    <step time="11.00" loaded="654" inserted="45" running="44" waiting="1" ended="1" meanWaitingTime="0.22" meanTravelTime="9.00" duration="1"/>
    <step time="12.00" loaded="654" inserted="49" running="48" waiting="2" ended="1" meanWaitingTime="0.20" meanTravelTime="9.00" duration="2"/>
    <step time="13.00" loaded="654" inserted="50" running="49" waiting="2" ended="1" meanWaitingTime="0.26" meanTravelTime="9.00" duration="1"/>
    <step time="14.00" loaded="654" inserted="53" running="52" waiting="3" ended="1" meanWaitingTime="0.25" meanTravelTime="9.00" duration="1"/>
    <step time="15.00" loaded="654" inserted="54" running="52" waiting="3" ended="2" meanWaitingTime="0.24" meanTravelTime="12.00" duration="2"/>
    <step time="16.00" loaded="654" inserted="59" running="56" waiting="3" ended="3" meanWaitingTime="0.34" meanTravelTime="11.00" duration="2"/>
    <step time="17.00" loaded="654" inserted="60" running="57" waiting="4" ended="3" meanWaitingTime="0.33" meanTravelTime="11.00" duration="1"/>
    <step time="18.00" loaded="654" inserted="69" running="65" waiting="4" ended="4" meanWaitingTime="0.29" meanTravelTime="12.00" duration="2"/>
    <step time="19.00" loaded="654" inserted="72" running="68" waiting="5" ended="4" meanWaitingTime="0.35" meanTravelTime="12.00" duration="2"/>
    <step time="20.00" loaded="654" inserted="74" running="69" waiting="5" ended="5" meanWaitingTime="0.34" meanTravelTime="11.40" duration="1"/>
    <step time="21.00" loaded="654" inserted="77" running="71" waiting="5" ended="6" meanWaitingTime="0.39" meanTravelTime="11.83" duration="4"/>
    <step time="22.00" loaded="654" inserted="81" running="75" waiting="4" ended="6" meanWaitingTime="0.48" meanTravelTime="11.83" duration="2"/>
    <step time="23.00" loaded="654" inserted="82" running="75" waiting="5" ended="7" meanWaitingTime="0.48" meanTravelTime="12.43" duration="3"/>
    <step time="24.00" loaded="654" inserted="84" running="76" waiting="5" ended="8" meanWaitingTime="0.46" meanTravelTime="12.13" duration="1"/>
    <step time="25.00" loaded="654" inserted="87" running="79" waiting="6" ended="8" meanWaitingTime="0.45" meanTravelTime="12.13" duration="1"/>
    <step time="26.00" loaded="654" inserted="90" running="81" waiting="7" ended="9" meanWaitingTime="0.53" meanTravelTime="12.44" duration="2"/>
    <step time="27.00" loaded="654" inserted="91" running="82" waiting="7" ended="9" meanWaitingTime="0.53" meanTravelTime="12.44" duration="1"/>
    <step time="28.00" loaded="654" inserted="94" running="84" waiting="7" ended="10" meanWaitingTime="0.57" meanTravelTime="12.90" duration="2"/>
    <step time="29.00" loaded="654" inserted="98" running="88" waiting="7" ended="10" meanWaitingTime="0.68" meanTravelTime="12.90" duration="2"/>
    <step time="30.00" loaded="654" inserted="101" running="91" waiting="6" ended="10" meanWaitingTime="0.76" meanTravelTime="12.90" duration="2"/>
    <step time="31.00" loaded="654" inserted="102" running="91" waiting="6" ended="11" meanWaitingTime="0.75" meanTravelTime="13.18" duration="2"/>
    <step time="32.00" loaded="654" inserted="105" running="94" waiting="8" ended="11" meanWaitingTime="0.73" meanTravelTime="13.18" duration="1"/>
    <step time="33.00" loaded="654" inserted="107" running="93" waiting="9" ended="14" meanWaitingTime="0.81" meanTravelTime="15.14" duration="2"/>
    <step time="34.00" loaded="654" inserted="109" running="95" waiting="9" ended="14" meanWaitingTime="0.81" meanTravelTime="15.14" duration="2"/>
    <step time="35.00" loaded="654" inserted="112" running="98" waiting="9" ended="14" meanWaitingTime="0.86" meanTravelTime="15.14" duration="2"/>
    <step time="36.00" loaded="654" inserted="123" running="108" waiting="8" ended="15" meanWaitingTime="0.81" meanTravelTime="15.27" duration="1"/>
    <step time="37.00" loaded="654" inserted="126" running="110" waiting="9" ended="16" meanWaitingTime="0.89" meanTravelTime="15.44" duration="1"/>
    <step time="38.00" loaded="654" inserted="127" running="111" waiting="9" ended="16" meanWaitingTime="0.88" meanTravelTime="15.44" duration="2"/>
    <step time="39.00" loaded="654" inserted="129" running="113" waiting="10" ended="16" meanWaitingTime="0.88" meanTravelTime="15.44" duration="2"/>
    <step time="40.00" loaded="654" inserted="133" running="117" waiting="10" ended="16" meanWaitingTime="0.96" meanTravelTime="15.44" duration="1"/>
    <step time="41.00" loaded="654" inserted="133" running="117" waiting="11" ended="16" meanWaitingTime="0.96" meanTravelTime="15.44" duration="2"/>
    <step time="42.00" loaded="654" inserted="135" running="119" waiting="11" ended="16" meanWaitingTime="1.00" meanTravelTime="15.44" duration="2"/>
    <step time="43.00" loaded="654" inserted="139" running="123" waiting="11" ended="16" meanWaitingTime="1.08" meanTravelTime="15.44" duration="1"/>
    <step time="44.00" loaded="654" inserted="141" running="125" waiting="13" ended="16" meanWaitingTime="1.06" meanTravelTime="15.44" duration="2"/>
    <step time="45.00" loaded="654" inserted="143" running="127" waiting="13" ended="16" meanWaitingTime="1.08" meanTravelTime="15.44" duration="3"/>
    <step time="46.00" loaded="654" inserted="145" running="128" waiting="13" ended="17" meanWaitingTime="1.18" meanTravelTime="16.53" duration="1"/>
    <step time="47.00" loaded="654" inserted="149" running="132" waiting="10" ended="17" meanWaitingTime="1.32" meanTravelTime="16.53" duration="2"/>
    <step time="48.00" loaded="654" inserted="153" running="136" waiting="12" ended="17" meanWaitingTime="1.29" meanTravelTime="16.53" duration="2"/>
    <step time="49.00" loaded="654" inserted="153" running="135" waiting="13" ended="18" meanWaitingTime="1.29" meanTravelTime="18.33" duration="2"/>
    <step time="50.00" loaded="654" inserted="158" running="140" waiting="12" ended="18" meanWaitingTime="1.40" meanTravelTime="18.33" duration="3"/>
    <step time="51.00" loaded="654" inserted="161" running="141" waiting="12" ended="20" meanWaitingTime="1.37" meanTravelTime="20.35" duration="2"/>
    <step time="52.00" loaded="654" inserted="163" running="141" waiting="15" ended="22" meanWaitingTime="1.36" meanTravelTime="22.86" duration="2"/>
    <step time="53.00" loaded="654" inserted="164" running="142" waiting="15" ended="22" meanWaitingTime="1.46" meanTravelTime="22.86" duration="3"/>
    <step time="54.00" loaded="654" inserted="173" running="150" waiting="14" ended="23" meanWaitingTime="1.53" meanTravelTime="23.43" duration="2"/>
    <step time="55.00" loaded="654" inserted="175" running="152" waiting="17" ended="23" meanWaitingTime="1.51" meanTravelTime="23.43" duration="3"/>
    <step time="56.00" loaded="654" inserted="176" running="153" waiting="17" ended="23" meanWaitingTime="1.51" meanTravelTime="23.43" duration="2"/>
    <step time="57.00" loaded="654" inserted="178" running="155" waiting="17" ended="23" meanWaitingTime="1.53" meanTravelTime="23.43" duration="1"/>
    <step time="58.00" loaded="654" inserted="180" running="157" waiting="17" ended="23" meanWaitingTime="1.62" meanTravelTime="23.43" duration="3"/>
    <step time="59.00" loaded="654" inserted="183" running="159" waiting="19" ended="24" meanWaitingTime="1.69" meanTravelTime="24.50" duration="2"/>
    <step time="60.00" loaded="654" inserted="188" running="163" waiting="18" ended="25" meanWaitingTime="1.65" meanTravelTime="25.24" duration="2"/>
    <step time="61.00" loaded="654" inserted="188" running="161" waiting="19" ended="27" meanWaitingTime="1.65" meanTravelTime="26.15" duration="3"/>
    <step time="62.00" loaded="654" inserted="190" running="162" waiting="19" ended="28" meanWaitingTime="1.79" meanTravelTime="26.14" duration="3"/>
    <step time="63.00" loaded="654" inserted="193" running="165" waiting="20" ended="28" meanWaitingTime="1.90" meanTravelTime="26.14" duration="2"/>
    <step time="64.00" loaded="654" inserted="197" running="169" waiting="20" ended="28" meanWaitingTime="1.95" meanTravelTime="26.14" duration="2"/>
    <step time="65.00" loaded="654" inserted="199" running="171" waiting="20" ended="28" meanWaitingTime="1.94" meanTravelTime="26.14" duration="2"/>
    <step time="66.00" loaded="654" inserted="201" running="172" waiting="21" ended="29" meanWaitingTime="1.94" meanTravelTime="26.86" duration="2"/>
    <step time="67.00" loaded="654" inserted="204" running="175" waiting="20" ended="29" meanWaitingTime="2.00" meanTravelTime="26.86" duration="3"/>
    <step time="68.00" loaded="654" inserted="206" running="177" waiting="21" ended="29" meanWaitingTime="2.03" meanTravelTime="26.86" duration="3"/>
    <step time="69.00" loaded="654" inserted="207" running="178" waiting="21" ended="29" meanWaitingTime="2.02" meanTravelTime="26.86" duration="3"/>
    <step time="70.00" loaded="654" inserted="209" running="180" waiting="23" ended="29" meanWaitingTime="2.10" meanTravelTime="26.86" duration="2"/>
    <step time="71.00" loaded="654" inserted="214" running="185" waiting="23" ended="29" meanWaitingTime="2.19" meanTravelTime="26.86" duration="2"/>
    <step time="72.00" loaded="654" inserted="223" running="192" waiting="24" ended="31" meanWaitingTime="2.10" meanTravelTime="28.97" duration="2"/>
    <step time="73.00" loaded="654" inserted="224" running="193" waiting="24" ended="31" meanWaitingTime="2.10" meanTravelTime="28.97" duration="4"/>
    <step time="74.00" loaded="654" inserted="225" running="194" waiting="25" ended="31" meanWaitingTime="2.09" meanTravelTime="28.97" duration="3"/>
    <step time="75.00" loaded="654" inserted="227" running="195" waiting="27" ended="32" meanWaitingTime="2.17" meanTravelTime="28.72" duration="3"/>
    <step time="76.00" loaded="654" inserted="228" running="196" waiting="27" ended="32" meanWaitingTime="2.16" meanTravelTime="28.72" duration="3"/>
    <step time="77.00" loaded="654" inserted="232" running="200" waiting="26" ended="32" meanWaitingTime="2.18" meanTravelTime="28.72" duration="4"/>
    <step time="78.00" loaded="654" inserted="234" running="202" waiting="27" ended="32" meanWaitingTime="2.30" meanTravelTime="28.72" duration="4"/>
    <step time="79.00" loaded="654" inserted="237" running="204" waiting="27" ended="33" meanWaitingTime="2.28" meanTravelTime="29.82" duration="5"/>
    <step time="80.00" loaded="654" inserted="241" running="207" waiting="28" ended="34" meanWaitingTime="2.24" meanTravelTime="30.65" duration="4"/>
    <step time="81.00" loaded="654" inserted="242" running="208" waiting="30" ended="34" meanWaitingTime="2.23" meanTravelTime="30.65" duration="4"/>
    <step time="82.00" loaded="654" inserted="244" running="210" waiting="29" ended="34" meanWaitingTime="2.36" meanTravelTime="30.65" duration="2"/>
    <step time="83.00" loaded="654" inserted="246" running="212" waiting="28" ended="34" meanWaitingTime="2.47" meanTravelTime="30.65" duration="4"/>
    <step time="84.00" loaded="654" inserted="250" running="216" waiting="29" ended="34" meanWaitingTime="2.44" meanTravelTime="30.65" duration="3"/>
    <step time="85.00" loaded="654" inserted="251" running="216" waiting="31" ended="35" meanWaitingTime="2.43" meanTravelTime="32.09" duration="2"/>
    <step time="86.00" loaded="654" inserted="253" running="215" waiting="32" ended="38" meanWaitingTime="2.41" meanTravelTime="35.39" duration="3"/>
    <step time="87.00" loaded="654" inserted="256" running="217" waiting="30" ended="39" meanWaitingTime="2.52" meanTravelTime="35.62" duration="2"/>
    <step time="88.00" loaded="654" inserted="258" running="218" waiting="32" ended="40" meanWaitingTime="2.50" meanTravelTime="36.02" duration="2"/>
    <step time="89.00" loaded="654" inserted="260" running="220" waiting="33" ended="40" meanWaitingTime="2.58" meanTravelTime="36.02" duration="2"/>
    <step time="90.00" loaded="654" inserted="267" running="227" waiting="34" ended="40" meanWaitingTime="2.51" meanTravelTime="36.02" duration="2"/>
    <step time="91.00" loaded="654" inserted="269" running="229" waiting="36" ended="40" meanWaitingTime="2.49" meanTravelTime="36.02" duration="3"/>
    <step time="92.00" loaded="654" inserted="274" running="233" waiting="35" ended="41" meanWaitingTime="2.59" meanTravelTime="36.51" duration="2"/>
    <step time="93.00" loaded="654" inserted="274" running="233" waiting="36" ended="41" meanWaitingTime="2.59" meanTravelTime="36.51" duration="3"/>
    <step time="94.00" loaded="654" inserted="277" running="235" waiting="36" ended="42" meanWaitingTime="2.60" meanTravelTime="36.88" duration="3"/>
    <step time="95.00" loaded="654" inserted="278" running="236" waiting="37" ended="42" meanWaitingTime="2.59" meanTravelTime="36.88" duration="3"/>
    <step time="96.00" loaded="654" inserted="283" running="240" waiting="39" ended="43" meanWaitingTime="2.65" meanTravelTime="38.26" duration="2"/>
    <step time="97.00" loaded="654" inserted="285" running="241" waiting="38" ended="44" meanWaitingTime="2.73" meanTravelTime="38.36" duration="3"/>
    <step time="98.00" loaded="654" inserted="285" running="241" waiting="40" ended="44" meanWaitingTime="2.73" meanTravelTime="38.36" duration="3"/>
    <step time="99.00" loaded="654" inserted="287" running="240" waiting="39" ended="47" meanWaitingTime="2.89" meanTravelTime="40.32" duration="4"/>
    <step time="100.00" loaded="654" inserted="291" running="243" waiting="39" ended="48" meanWaitingTime="3.05" meanTravelTime="41.06" duration="3"/>
    <step time="101.00" loaded="654" inserted="296" running="248" waiting="38" ended="48" meanWaitingTime="3.14" meanTravelTime="41.06" duration="3"/>
    <step time="102.00" loaded="654" inserted="298" running="249" waiting="37" ended="49" meanWaitingTime="3.39" meanTravelTime="41.39" duration="3"/>
    <step time="103.00" loaded="654" inserted="301" running="251" waiting="37" ended="50" meanWaitingTime="3.35" meanTravelTime="42.10" duration="3"/>
    <step time="104.00" loaded="654" inserted="304" running="254" waiting="39" ended="50" meanWaitingTime="3.48" meanTravelTime="42.10" duration="3"/>
    <step time="105.00" loaded="654" inserted="308" running="256" waiting="37" ended="52" meanWaitingTime="3.68" meanTravelTime="43.69" duration="3"/>
    <step time="106.00" loaded="654" inserted="308" running="256" waiting="37" ended="52" meanWaitingTime="3.68" meanTravelTime="43.69" duration="3"/>
    <step time="107.00" loaded="654" inserted="309" running="256" waiting="41" ended="53" meanWaitingTime="3.83" meanTravelTime="44.89" duration="4"/>
    <step time="108.00" loaded="654" inserted="319" running="261" waiting="40" ended="58" meanWaitingTime="3.81" meanTravelTime="45.95" duration="3"/>
    <step time="109.00" loaded="654" inserted="321" running="263" waiting="41" ended="58" meanWaitingTime="3.89" meanTravelTime="45.95" duration="3"/>
    <step time="110.00" loaded="654" inserted="326" running="266" waiting="37" ended="60" meanWaitingTime="4.03" meanTravelTime="47.65" duration="3"/>
    <step time="111.00" loaded="654" inserted="331" running="270" waiting="38" ended="61" meanWaitingTime="4.15" meanTravelTime="48.07" duration="5"/>
    <step time="112.00" loaded="654" inserted="334" running="272" waiting="38" ended="62" meanWaitingTime="4.11" meanTravelTime="47.50" duration="3"/>
    <step time="113.00" loaded="654" inserted="336" running="272" waiting="38" ended="64" meanWaitingTime="4.17" meanTravelTime="48.55" duration="3"/>
    <step time="114.00" loaded="654" inserted="338" running="274" waiting="38" ended="64" meanWaitingTime="4.32" meanTravelTime="48.55" duration="11"/>
    <step time="115.00" loaded="654" inserted="340" running="275" waiting="40" ended="65" meanWaitingTime="4.42" meanTravelTime="49.08" duration="3"/>
    <step time="116.00" loaded="654" inserted="344" running="277" waiting="39" ended="67" meanWaitingTime="4.48" meanTravelTime="48.30" duration="4"/>
    <step time="117.00" loaded="654" inserted="346" running="278" waiting="38" ended="68" meanWaitingTime="4.62" meanTravelTime="48.60" duration="3"/>
    <step time="118.00" loaded="654" inserted="351" running="281" waiting="37" ended="70" meanWaitingTime="4.74" meanTravelTime="49.07" duration="4"/>
    <step time="119.00" loaded="654" inserted="352" running="279" waiting="37" ended="73" meanWaitingTime="4.84" meanTravelTime="49.59" duration="4"/>
    <step time="120.00" loaded="654" inserted="355" running="281" waiting="37" ended="74" meanWaitingTime="4.91" meanTravelTime="49.14" duration="3"/>
    <step time="121.00" loaded="654" inserted="357" running="281" waiting="38" ended="76" meanWaitingTime="4.98" meanTravelTime="49.57" duration="4"/>
    <step time="122.00" loaded="654" inserted="362" running="286" waiting="37" ended="76" meanWaitingTime="5.08" meanTravelTime="49.57" duration="4"/>
    <step time="123.00" loaded="654" inserted="367" running="291" waiting="36" ended="76" meanWaitingTime="5.23" meanTravelTime="49.57" duration="3"/>
    <step time="124.00" loaded="654" inserted="369" running="288" waiting="36" ended="81" meanWaitingTime="5.23" meanTravelTime="51.22" duration="3"/>
    <step time="125.00" loaded="654" inserted="370" running="289" waiting="36" ended="81" meanWaitingTime="5.23" meanTravelTime="51.22" duration="3"/>
    <step time="126.00" loaded="654" inserted="377" running="296" waiting="39" ended="81" meanWaitingTime="5.13" meanTravelTime="51.22" duration="3"/>
    <step time="127.00" loaded="654" inserted="380" running="298" waiting="39" ended="82" meanWaitingTime="5.22" meanTravelTime="51.21" duration="4"/>
    <step time="128.00" loaded="654" inserted="382" running="295" waiting="39" ended="87" meanWaitingTime="5.20" meanTravelTime="51.24" duration="4"/>
    <step time="129.00" loaded="654" inserted="386" running="296" waiting="38" ended="90" meanWaitingTime="5.25" meanTravelTime="51.92" duration="5"/>
    <step time="130.00" loaded="654" inserted="388" running="296" waiting="41" ended="92" meanWaitingTime="5.22" meanTravelTime="53.08" duration="3"/>
    <step time="131.00" loaded="654" inserted="391" running="298" waiting="41" ended="93" meanWaitingTime="5.28" meanTravelTime="53.09" duration="4"/>
    <step time="132.00" loaded="654" inserted="393" running="298" waiting="41" ended="95" meanWaitingTime="5.28" meanTravelTime="53.11" duration="4"/>
    <step time="133.00" loaded="654" inserted="396" running="297" waiting="41" ended="99" meanWaitingTime="5.39" meanTravelTime="54.96" duration="5"/>
    <step time="134.00" loaded="654" inserted="401" running="302" waiting="39" ended="99" meanWaitingTime="5.54" meanTravelTime="54.96" duration="4"/>
    <step time="135.00" loaded="654" inserted="402" running="300" waiting="39" ended="102" meanWaitingTime="5.62" meanTravelTime="54.76" duration="3"/>
    <step time="136.00" loaded="654" inserted="405" running="302" waiting="39" ended="103" meanWaitingTime="5.68" meanTravelTime="54.80" duration="3"/>
    <step time="137.00" loaded="654" inserted="406" running="301" waiting="42" ended="105" meanWaitingTime="5.66" meanTravelTime="55.08" duration="5"/>
    <step time="138.00" loaded="654" inserted="408" running="301" waiting="42" ended="107" meanWaitingTime="5.72" meanTravelTime="55.26" duration="4"/>
    <step time="139.00" loaded="654" inserted="411" running="303" waiting="41" ended="108" meanWaitingTime="5.78" meanTravelTime="54.90" duration="4"/>
    <step time="140.00" loaded="654" inserted="413" running="304" waiting="42" ended="109" meanWaitingTime="5.78" meanTravelTime="54.84" duration="3"/>
    <step time="141.00" loaded="654" inserted="415" running="303" waiting="44" ended="112" meanWaitingTime="5.76" meanTravelTime="56.17" duration="4"/>
    <step time="142.00" loaded="654" inserted="420" running="304" waiting="40" ended="116" meanWaitingTime="5.92" meanTravelTime="57.23" duration="4"/>
    <step time="143.00" loaded="654" inserted="423" running="306" waiting="41" ended="117" meanWaitingTime="5.99" meanTravelTime="56.88" duration="4"/>
    <step time="144.00" loaded="654" inserted="431" running="312" waiting="45" ended="119" meanWaitingTime="5.87" meanTravelTime="57.79" duration="4"/>
    <step time="145.00" loaded="654" inserted="432" running="310" waiting="46" ended="122" meanWaitingTime="5.86" meanTravelTime="58.80" duration="4"/>
    <step time="146.00" loaded="654" inserted="434" running="310" waiting="45" ended="124" meanWaitingTime="5.84" meanTravelTime="58.77" duration="4"/>
    <step time="147.00" loaded="654" inserted="435" running="308" waiting="48" ended="127" meanWaitingTime="5.83" meanTravelTime="58.32" duration="4"/>
    <step time="148.00" loaded="654" inserted="437" running="310" waiting="49" ended="127" meanWaitingTime="5.95" meanTravelTime="58.32" duration="5"/>
    <step time="149.00" loaded="654" inserted="440" running="311" waiting="48" ended="129" meanWaitingTime="6.02" meanTravelTime="59.29" duration="4"/>
    <step time="150.00" loaded="654" inserted="442" running="312" waiting="48" ended="130" meanWaitingTime="6.02" meanTravelTime="59.18" duration="4"/>
    <step time="151.00" loaded="654" inserted="446" running="312" waiting="47" ended="134" meanWaitingTime="6.09" meanTravelTime="59.51" duration="3"/>
    <step time="152.00" loaded="654" inserted="450" running="313" waiting="48" ended="137" meanWaitingTime="6.10" meanTravelTime="60.04" duration="4"/>
    <step time="153.00" loaded="654" inserted="451" running="314" waiting="48" ended="137" meanWaitingTime="6.15" meanTravelTime="60.04" duration="4"/>
    <step time="154.00" loaded="654" inserted="452" running="315" waiting="48" ended="137" meanWaitingTime="6.17" meanTravelTime="60.04" duration="3"/>
    <step time="155.00" loaded="654" inserted="456" running="316" waiting="48" ended="140" meanWaitingTime="6.23" meanTravelTime="60.19" duration="4"/>
    <step time="156.00" loaded="654" inserted="459" running="316" waiting="49" ended="143" meanWaitingTime="6.30" meanTravelTime="60.45" duration="4"/>
    <step time="157.00" loaded="654" inserted="460" running="316" waiting="50" ended="144" meanWaitingTime="6.29" meanTravelTime="60.58" duration="4"/>
    <step time="158.00" loaded="654" inserted="460" running="315" waiting="51" ended="145" meanWaitingTime="6.29" meanTravelTime="60.46" duration="4"/>
    <step time="159.00" loaded="654" inserted="463" running="316" waiting="53" ended="147" meanWaitingTime="6.34" meanTravelTime="61.27" duration="3"/>
    <step time="160.00" loaded="654" inserted="468" running="321" waiting="52" ended="147" meanWaitingTime="6.40" meanTravelTime="61.27" duration="4"/>
    <step time="161.00" loaded="654" inserted="469" running="322" waiting="53" ended="147" meanWaitingTime="6.38" meanTravelTime="61.27" duration="3"/>
    <step time="162.00" loaded="654" inserted="475" running="327" waiting="55" ended="148" meanWaitingTime="6.30" meanTravelTime="61.64" duration="3"/>
    <step time="163.00" loaded="654" inserted="475" running="322" waiting="60" ended="153" meanWaitingTime="6.30" meanTravelTime="63.07" duration="4"/>
    <step time="164.00" loaded="654" inserted="480" running="326" waiting="58" ended="154" meanWaitingTime="6.33" meanTravelTime="62.95" duration="4"/>
    <step time="165.00" loaded="654" inserted="483" running="329" waiting="56" ended="154" meanWaitingTime="6.51" meanTravelTime="62.95" duration="5"/>
    <step time="166.00" loaded="654" inserted="484" running="329" waiting="57" ended="155" meanWaitingTime="6.50" meanTravelTime="63.52" duration="3"/>
    <step time="167.00" loaded="654" inserted="486" running="331" waiting="59" ended="155" meanWaitingTime="6.48" meanTravelTime="63.52" duration="4"/>
    <step time="168.00" loaded="654" inserted="492" running="337" waiting="57" ended="155" meanWaitingTime="6.54" meanTravelTime="63.52" duration="4"/>
    <step time="169.00" loaded="654" inserted="493" running="336" waiting="57" ended="157" meanWaitingTime="6.52" meanTravelTime="63.56" duration="4"/>
    <step time="170.00" loaded="654" inserted="493" running="334" waiting="61" ended="159" meanWaitingTime="6.52" meanTravelTime="64.22" duration="4"/>
    <step time="171.00" loaded="654" inserted="495" running="334" waiting="61" ended="161" meanWaitingTime="6.55" meanTravelTime="64.61" duration="3"/>
    <step time="172.00" loaded="654" inserted="500" running="339" waiting="60" ended="161" meanWaitingTime="6.62" meanTravelTime="64.61" duration="5"/>
    <step time="173.00" loaded="654" inserted="501" running="338" waiting="61" ended="163" meanWaitingTime="6.60" meanTravelTime="65.42" duration="4"/>
    <step time="174.00" loaded="654" inserted="503" running="336" waiting="63" ended="167" meanWaitingTime="6.67" meanTravelTime="66.00" duration="4"/>
    <step time="175.00" loaded="654" inserted="505" running="338" waiting="62" ended="167" meanWaitingTime="6.67" meanTravelTime="66.00" duration="4"/>
    <step time="176.00" loaded="654" inserted="508" running="341" waiting="63" ended="167" meanWaitingTime="6.66" meanTravelTime="66.00" duration="4"/>
    <step time="177.00" loaded="654" inserted="510" running="342" waiting="63" ended="168" meanWaitingTime="6.76" meanTravelTime="65.97" duration="4"/>
    <step time="178.00" loaded="654" inserted="513" running="343" waiting="63" ended="170" meanWaitingTime="6.91" meanTravelTime="66.43" duration="3"/>
    <step time="179.00" loaded="654" inserted="515" running="344" waiting="63" ended="171" meanWaitingTime="6.93" meanTravelTime="66.81" duration="4"/>
    <step time="180.00" loaded="654" inserted="521" running="349" waiting="65" ended="172" meanWaitingTime="6.85" meanTravelTime="67.13" duration="4"/>
    <step time="181.00" loaded="654" inserted="526" running="351" waiting="66" ended="175" meanWaitingTime="6.79" meanTravelTime="67.37" duration="5"/>
    <step time="182.00" loaded="654" inserted="530" running="353" waiting="66" ended="177" meanWaitingTime="6.90" meanTravelTime="67.31" duration="4"/>
    <step time="183.00" loaded="654" inserted="532" running="354" waiting="66" ended="178" meanWaitingTime="7.05" meanTravelTime="67.67" duration="4"/>
    <step time="184.00" loaded="654" inserted="534" running="355" waiting="66" ended="179" meanWaitingTime="7.02" meanTravelTime="67.74" duration="4"/>
    <step time="185.00" loaded="654" inserted="537" running="356" waiting="66" ended="181" meanWaitingTime="7.02" meanTravelTime="67.78" duration="3"/>
    <step time="186.00" loaded="654" inserted="538" running="357" waiting="68" ended="181" meanWaitingTime="7.13" meanTravelTime="67.78" duration="4"/>
    <step time="187.00" loaded="654" inserted="539" running="357" waiting="67" ended="182" meanWaitingTime="7.17" meanTravelTime="67.73" duration="4"/>