<?xml version="1.0" encoding="UTF-8"?>

<!-- generated on 3/31/2016 11:44:29 AM by SUMO gui Version 0.24.0
<?xml version="1.0" encoding="UTF-8"?>

<configuration xmlns:xsi="http://www.w3.org/2001/XMLSchema-instance" xsi:noNamespaceSchemaLocation="http://sumo.dlr.de/xsd/sumo-gui.exeConfiguration.xsd">

    <input>
        <net-file value="C:\Users\Xavier\Dropbox\Courses\Fall\ME%20199%20-%20Final%20Year%20Project\Sumo%20Projects\Huntington%20Colorado\Version%204\huntingtonColorado.net.xml"/>
        <route-files value="C:\Users\Xavier\Dropbox\Courses\Fall\ME%20199%20-%20Final%20Year%20Project\Sumo%20Projects\Huntington%20Colorado\Version%204\huntingtonColorado_exp.rou.xml"/>
        <additional-files value="C:\Users\Xavier\Dropbox\Courses\Fall\ME%20199%20-%20Final%20Year%20Project\Sumo%20Projects\Huntington%20Colorado\Version%204\huntingtonColoradoMyAdd.add.xml"/>
    </input>

    <output>
        <summary-output value="tripinfo_new_0.85.xml"/>
        <save-state.prefix value="C:\Users\Xavier\Dropbox\Courses\Fall\ME%20199%20-%20Final%20Year%20Project\Sumo%20Projects\Huntington%20Colorado\Version%204\state"/>
    </output>

    <time>
        <begin value="0"/>
    </time>

    <processing>
        <time-to-teleport value="-1"/>
    </processing>

    <emissions>
        <phemlight-path value="C:\Users\Xavier\Dropbox\Courses\Fall\ME%20199%20-%20Final%20Year%20Project\Sumo%20Projects\Huntington%20Colorado\Version%204\./PHEMlight/"/>
    </emissions>

    <traci_server>
        <remote-port value="8873"/>
    </traci_server>

</configuration>
-->

<summary xmlns:xsi="http://www.w3.org/2001/XMLSchema-instance" xsi:noNamespaceSchemaLocation="http://sumo.dlr.de/xsd/summary_file.xsd">
    <step time="0.00" loaded="21" inserted="20" running="20" waiting="0" ended="0" meanWaitingTime="0.00" meanTravelTime="-1.00" duration="0"/>
    <step time="1.00" loaded="21" inserted="20" running="20" waiting="1" ended="0" meanWaitingTime="0.00" meanTravelTime="-1.00" duration="1"/>
    <step time="2.00" loaded="654" inserted="21" running="21" waiting="0" ended="0" meanWaitingTime="0.05" meanTravelTime="-1.00" duration="1"/>
    <step time="3.00" loaded="654" inserted="25" running="25" waiting="1" ended="0" meanWaitingTime="0.04" meanTravelTime="-1.00" duration="96"/>
    <step time="4.00" loaded="654" inserted="28" running="28" waiting="0" ended="0" meanWaitingTime="0.07" meanTravelTime="-1.00" duration="1"/>
    <step time="5.00" loaded="654" inserted="29" running="29" waiting="0" ended="0" meanWaitingTime="0.07" meanTravelTime="-1.00" duration="1"/>
    <step time="6.00" loaded="654" inserted="31" running="31" waiting="0" ended="0" meanWaitingTime="0.06" meanTravelTime="-1.00" duration="1"/>
    <step time="7.00" loaded="654" inserted="36" running="36" waiting="0" ended="0" meanWaitingTime="0.06" meanTravelTime="-1.00" duration="0"/>
    <step time="8.00" loaded="654" inserted="39" running="39" waiting="1" ended="0" meanWaitingTime="0.05" meanTravelTime="-1.00" duration="2"/>
    <step time="9.00" loaded="654" inserted="41" running="40" waiting="0" ended="1" meanWaitingTime="0.07" meanTravelTime="9.00" duration="1"/>
    <step time="10.00" loaded="654" inserted="42" running="41" waiting="1" ended="1" meanWaitingTime="0.07" meanTravelTime="9.00" duration="1"/>
    <step time="11.00" loaded="654" inserted="46" running="45" waiting="0" ended="1" meanWaitingTime="0.09" meanTravelTime="9.00" duration="2"/>
    <step time="12.00" loaded="654" inserted="51" running="50" waiting="0" ended="1" meanWaitingTime="0.08" meanTravelTime="9.00" duration="0"/>
    <step time="13.00" loaded="654" inserted="52" running="51" waiting="0" ended="1" meanWaitingTime="0.08" meanTravelTime="9.00" duration="1"/>
    <step time="14.00" loaded="654" inserted="55" running="53" waiting="1" ended="2" meanWaitingTime="0.07" meanTravelTime="11.50" duration="1"/>
    <step time="15.00" loaded="654" inserted="57" running="55" waiting="0" ended="2" meanWaitingTime="0.09" meanTravelTime="11.50" duration="1"/>
    <step time="16.00" loaded="654" inserted="61" running="58" waiting="1" ended="3" meanWaitingTime="0.08" meanTravelTime="10.67" duration="1"/>
    <step time="17.00" loaded="654" inserted="62" running="58" waiting="2" ended="4" meanWaitingTime="0.08" meanTravelTime="11.50" duration="3"/>
    <step time="18.00" loaded="654" inserted="72" running="68" waiting="1" ended="4" meanWaitingTime="0.10" meanTravelTime="11.50" duration="1"/>
    <step time="19.00" loaded="654" inserted="75" running="71" waiting="2" ended="4" meanWaitingTime="0.09" meanTravelTime="11.50" duration="2"/>
    <step time="20.00" loaded="654" inserted="78" running="73" waiting="1" ended="5" meanWaitingTime="0.13" meanTravelTime="11.00" duration="1"/>
    <step time="21.00" loaded="654" inserted="80" running="74" waiting="2" ended="6" meanWaitingTime="0.13" meanTravelTime="11.50" duration="3"/>
    <step time="22.00" loaded="654" inserted="83" running="76" waiting="2" ended="7" meanWaitingTime="0.16" meanTravelTime="12.00" duration="2"/>
    <step time="23.00" loaded="654" inserted="85" running="77" waiting="2" ended="8" meanWaitingTime="0.16" meanTravelTime="11.63" duration="1"/>
    <step time="24.00" loaded="654" inserted="88" running="79" waiting="1" ended="9" meanWaitingTime="0.19" meanTravelTime="13.00" duration="1"/>
    <step time="25.00" loaded="654" inserted="92" running="82" waiting="1" ended="10" meanWaitingTime="0.21" meanTravelTime="13.10" duration="2"/>
    <step time="26.00" loaded="654" inserted="95" running="84" waiting="2" ended="11" meanWaitingTime="0.20" meanTravelTime="13.27" duration="2"/>
    <step time="27.00" loaded="654" inserted="96" running="84" waiting="2" ended="12" meanWaitingTime="0.20" meanTravelTime="12.92" duration="3"/>
    <step time="28.00" loaded="654" inserted="99" running="87" waiting="2" ended="12" meanWaitingTime="0.22" meanTravelTime="12.92" duration="2"/>
    <step time="29.00" loaded="654" inserted="104" running="91" waiting="1" ended="13" meanWaitingTime="0.24" meanTravelTime="13.08" duration="1"/>
    <step time="30.00" loaded="654" inserted="105" running="91" waiting="2" ended="14" meanWaitingTime="0.24" meanTravelTime="13.21" duration="1"/>
    <step time="31.00" loaded="654" inserted="106" running="92" waiting="2" ended="14" meanWaitingTime="0.24" meanTravelTime="13.21" duration="2"/>
    <step time="32.00" loaded="654" inserted="111" running="96" waiting="2" ended="15" meanWaitingTime="0.26" meanTravelTime="13.27" duration="2"/>
    <step time="33.00" loaded="654" inserted="115" running="98" waiting="1" ended="17" meanWaitingTime="0.28" meanTravelTime="14.00" duration="1"/>
    <step time="34.00" loaded="654" inserted="116" running="98" waiting="2" ended="18" meanWaitingTime="0.28" meanTravelTime="14.06" duration="2"/>
    <step time="35.00" loaded="654" inserted="118" running="99" waiting="3" ended="19" meanWaitingTime="0.27" meanTravelTime="14.79" duration="1"/>
    <step time="36.00" loaded="654" inserted="129" running="110" waiting="2" ended="19" meanWaitingTime="0.28" meanTravelTime="14.79" duration="2"/>
    <step time="37.00" loaded="654" inserted="133" running="114" waiting="2" ended="19" meanWaitingTime="0.29" meanTravelTime="14.79" duration="2"/>
    <step time="38.00" loaded="654" inserted="135" running="116" waiting="1" ended="19" meanWaitingTime="0.31" meanTravelTime="14.79" duration="2"/>
    <step time="39.00" loaded="654" inserted="137" running="118" waiting="2" ended="19" meanWaitingTime="0.31" meanTravelTime="14.79" duration="3"/>
    <step time="40.00" loaded="654" inserted="141" running="122" waiting="2" ended="19" meanWaitingTime="0.30" meanTravelTime="14.79" duration="2"/>
    <step time="41.00" loaded="654" inserted="142" running="123" waiting="2" ended="19" meanWaitingTime="0.32" meanTravelTime="14.79" duration="2"/>
    <step time="42.00" loaded="654" inserted="144" running="125" waiting="2" ended="19" meanWaitingTime="0.32" meanTravelTime="14.79" duration="1"/>
    <step time="43.00" loaded="654" inserted="147" running="128" waiting="3" ended="19" meanWaitingTime="0.31" meanTravelTime="14.79" duration="2"/>
    <step time="44.00" loaded="654" inserted="151" running="132" waiting="3" ended="19" meanWaitingTime="0.34" meanTravelTime="14.79" duration="2"/>
    <step time="45.00" loaded="654" inserted="154" running="135" waiting="2" ended="19" meanWaitingTime="0.36" meanTravelTime="14.79" duration="1"/>
    <step time="46.00" loaded="654" inserted="155" running="136" waiting="3" ended="19" meanWaitingTime="0.35" meanTravelTime="14.79" duration="2"/>
    <step time="47.00" loaded="654" inserted="156" running="137" waiting="3" ended="19" meanWaitingTime="0.35" meanTravelTime="14.79" duration="2"/>
    <step time="48.00" loaded="654" inserted="162" running="143" waiting="3" ended="19" meanWaitingTime="0.37" meanTravelTime="14.79" duration="2"/>
    <step time="49.00" loaded="654" inserted="163" running="143" waiting="3" ended="20" meanWaitingTime="0.37" meanTravelTime="16.50" duration="2"/>
    <step time="50.00" loaded="654" inserted="166" running="145" waiting="4" ended="21" meanWaitingTime="0.36" meanTravelTime="17.24" duration="2"/>
    <step time="51.00" loaded="654" inserted="170" running="149" waiting="3" ended="21" meanWaitingTime="0.39" meanTravelTime="17.24" duration="3"/>
    <step time="52.00" loaded="654" inserted="175" running="152" waiting="3" ended="23" meanWaitingTime="0.42" meanTravelTime="19.91" duration="2"/>
    <step time="53.00" loaded="654" inserted="175" running="152" waiting="4" ended="23" meanWaitingTime="0.42" meanTravelTime="19.91" duration="2"/>
    <step time="54.00" loaded="654" inserted="183" running="158" waiting="4" ended="25" meanWaitingTime="0.40" meanTravelTime="20.92" duration="2"/>
    <step time="55.00" loaded="654" inserted="188" running="163" waiting="4" ended="25" meanWaitingTime="0.43" meanTravelTime="20.92" duration="2"/>
    <step time="56.00" loaded="654" inserted="189" running="164" waiting="4" ended="25" meanWaitingTime="0.42" meanTravelTime="20.92" duration="2"/>
    <step time="57.00" loaded="654" inserted="190" running="164" waiting="5" ended="26" meanWaitingTime="0.42" meanTravelTime="21.00" duration="2"/>
    <step time="58.00" loaded="654" inserted="193" running="166" waiting="4" ended="27" meanWaitingTime="0.46" meanTravelTime="21.74" duration="3"/>
    <step time="59.00" loaded="654" inserted="197" running="168" waiting="5" ended="29" meanWaitingTime="0.45" meanTravelTime="22.55" duration="2"/>
    <step time="60.00" loaded="654" inserted="201" running="171" waiting="5" ended="30" meanWaitingTime="0.44" meanTravelTime="23.33" duration="2"/>
    <step time="61.00" loaded="654" inserted="202" running="169" waiting="5" ended="33" meanWaitingTime="0.48" meanTravelTime="24.24" duration="2"/>
    <step time="62.00" loaded="654" inserted="204" running="171" waiting="5" ended="33" meanWaitingTime="0.52" meanTravelTime="24.24" duration="2"/>
    <step time="63.00" loaded="654" inserted="208" running="175" waiting="5" ended="33" meanWaitingTime="0.51" meanTravelTime="24.24" duration="8"/>
    <step time="64.00" loaded="654" inserted="211" running="177" waiting="6" ended="34" meanWaitingTime="0.50" meanTravelTime="24.85" duration="2"/>
    <step time="65.00" loaded="654" inserted="214" running="178" waiting="5" ended="36" meanWaitingTime="0.54" meanTravelTime="25.36" duration="2"/>
    <step time="66.00" loaded="654" inserted="215" running="178" waiting="7" ended="37" meanWaitingTime="0.54" meanTravelTime="25.59" duration="2"/>
    <step time="67.00" loaded="654" inserted="217" running="180" waiting="7" ended="37" meanWaitingTime="0.53" meanTravelTime="25.59" duration="3"/>
    <step time="68.00" loaded="654" inserted="220" running="181" waiting="7" ended="39" meanWaitingTime="0.58" meanTravelTime="25.49" duration="3"/>
    <step time="69.00" loaded="654" inserted="222" running="183" waiting="6" ended="39" meanWaitingTime="0.62" meanTravelTime="25.49" duration="2"/>
    <step time="70.00" loaded="654" inserted="224" running="185" waiting="8" ended="39" meanWaitingTime="0.61" meanTravelTime="25.49" duration="2"/>
    <step time="71.00" loaded="654" inserted="228" running="188" waiting="9" ended="40" meanWaitingTime="0.60" meanTravelTime="25.57" duration="2"/>
    <step time="72.00" loaded="654" inserted="239" running="197" waiting="8" ended="42" meanWaitingTime="0.62" meanTravelTime="26.57" duration="4"/>
    <step time="73.00" loaded="654" inserted="239" running="197" waiting="9" ended="42" meanWaitingTime="0.62" meanTravelTime="26.57" duration="4"/>
    <step time="74.00" loaded="654" inserted="240" running="198" waiting="10" ended="42" meanWaitingTime="0.62" meanTravelTime="26.57" duration="2"/>
    <step time="75.00" loaded="654" inserted="244" running="202" waiting="10" ended="42" meanWaitingTime="0.66" meanTravelTime="26.57" duration="2"/>
    <step time="76.00" loaded="654" inserted="245" running="203" waiting="10" ended="42" meanWaitingTime="0.66" meanTravelTime="26.57" duration="4"/>
    <step time="77.00" loaded="654" inserted="247" running="205" waiting="11" ended="42" meanWaitingTime="0.65" meanTravelTime="26.57" duration="3"/>
    <step time="78.00" loaded="654" inserted="250" running="208" waiting="11" ended="42" meanWaitingTime="0.70" meanTravelTime="26.57" duration="3"/>
    <step time="79.00" loaded="654" inserted="252" running="210" waiting="12" ended="42" meanWaitingTime="0.69" meanTravelTime="26.57" duration="3"/>
    <step time="80.00" loaded="654" inserted="256" running="211" waiting="13" ended="45" meanWaitingTime="0.68" meanTravelTime="26.89" duration="2"/>
    <step time="81.00" loaded="654" inserted="259" running="214" waiting="13" ended="45" meanWaitingTime="0.73" meanTravelTime="26.89" duration="3"/>
    <step time="82.00" loaded="654" inserted="260" running="214" waiting="13" ended="46" meanWaitingTime="0.78" meanTravelTime="27.70" duration="2"/>
    <step time="83.00" loaded="654" inserted="261" running="215" waiting="13" ended="46" meanWaitingTime="0.78" meanTravelTime="27.70" duration="2"/>
    <step time="84.00" loaded="654" inserted="264" running="215" waiting="15" ended="49" meanWaitingTime="0.77" meanTravelTime="31.06" duration="2"/>
    <step time="85.00" loaded="654" inserted="267" running="217" waiting="15" ended="50" meanWaitingTime="0.82" meanTravelTime="31.78" duration="2"/>
    <step time="86.00" loaded="654" inserted="269" running="217" waiting="16" ended="52" meanWaitingTime="0.81" meanTravelTime="33.62" duration="2"/>
    <step time="87.00" loaded="654" inserted="270" running="217" waiting="16" ended="53" meanWaitingTime="0.81" meanTravelTime="33.94" duration="3"/>
    <step time="88.00" loaded="654" inserted="274" running="221" waiting="16" ended="53" meanWaitingTime="0.86" meanTravelTime="33.94" duration="3"/>
    <step time="89.00" loaded="654" inserted="276" running="223" waiting="17" ended="53" meanWaitingTime="0.91" meanTravelTime="33.94" duration="2"/>
    <step time="90.00" loaded="654" inserted="283" running="230" waiting="18" ended="53" meanWaitingTime="0.89" meanTravelTime="33.94" duration="3"/>
    <step time="91.00" loaded="654" inserted="286" running="231" waiting="19" ended="55" meanWaitingTime="0.88" meanTravelTime="34.45" duration="3"/>
    <step time="92.00" loaded="654" inserted="290" running="234" waiting="19" ended="56" meanWaitingTime="0.93" meanTravelTime="34.20" duration="3"/>
    <step time="93.00" loaded="654" inserted="291" running="233" waiting="19" ended="58" meanWaitingTime="0.98" meanTravelTime="35.21" duration="2"/>
    <step time="94.00" loaded="654" inserted="295" running="237" waiting="18" ended="58" meanWaitingTime="1.02" meanTravelTime="35.21" duration="2"/>
    <step time="95.00" loaded="654" inserted="296" running="238" waiting="19" ended="58" meanWaitingTime="1.01" meanTravelTime="35.21" duration="2"/>
    <step time="96.00" loaded="654" inserted="300" running="239" waiting="22" ended="61" meanWaitingTime="1.00" meanTravelTime="35.08" duration="3"/>
    <step time="97.00" loaded="654" inserted="303" running="241" waiting="20" ended="62" meanWaitingTime="1.15" meanTravelTime="35.98" duration="3"/>
    <step time="98.00" loaded="654" inserted="307" running="244" waiting="18" ended="63" meanWaitingTime="1.30" meanTravelTime="35.83" duration="3"/>
    <step time="99.00" loaded="654" inserted="308" running="244" waiting="18" ended="64" meanWaitingTime="1.30" meanTravelTime="36.41" duration="3"/>
    <step time="100.00" loaded="654" inserted="310" running="244" waiting="20" ended="66" meanWaitingTime="1.29" meanTravelTime="38.00" duration="2"/>
    <step time="101.00" loaded="654" inserted="316" running="246" waiting="18" ended="70" meanWaitingTime="1.41" meanTravelTime="39.30" duration="2"/>
    <step time="102.00" loaded="654" inserted="318" running="247" waiting="17" ended="71" meanWaitingTime="1.52" meanTravelTime="39.55" duration="3"/>
    <step time="103.00" loaded="654" inserted="321" running="247" waiting="17" ended="74" meanWaitingTime="1.51" meanTravelTime="39.93" duration="2"/>
    <step time="104.00" loaded="654" inserted="324" running="248" waiting="19" ended="76" meanWaitingTime="1.49" meanTravelTime="40.37" duration="3"/>
    <step time="105.00" loaded="654" inserted="327" running="251" waiting="18" ended="76" meanWaitingTime="1.61" meanTravelTime="40.37" duration="3"/>
    <step time="106.00" loaded="654" inserted="328" running="252" waiting="17" ended="76" meanWaitingTime="1.65" meanTravelTime="40.37" duration="3"/>
    <step time="107.00" loaded="654" inserted="331" running="252" waiting="19" ended="79" meanWaitingTime="1.64" meanTravelTime="41.90" duration="2"/>
    <step time="108.00" loaded="654" inserted="341" running="260" waiting="18" ended="81" meanWaitingTime="1.66" meanTravelTime="42.49" duration="3"/>
    <step time="109.00" loaded="654" inserted="344" running="260" waiting="18" ended="84" meanWaitingTime="1.75" meanTravelTime="43.58" duration="3"/>
    <step time="110.00" loaded="654" inserted="347" running="263" waiting="16" ended="84" meanWaitingTime="1.84" meanTravelTime="43.58" duration="3"/>
    <step time="111.00" loaded="654" inserted="352" running="264" waiting="17" ended="88" meanWaitingTime="1.86" meanTravelTime="43.97" duration="3"/>
    <step time="112.00" loaded="654" inserted="356" running="264" waiting="16" ended="92" meanWaitingTime="1.92" meanTravelTime="44.13" duration="3"/>
    <step time="113.00" loaded="654" inserted="358" running="263" waiting="16" ended="95" meanWaitingTime="1.95" meanTravelTime="44.11" duration="3"/>
    <step time="114.00" loaded="654" inserted="361" running="265" waiting="15" ended="96" meanWaitingTime="2.02" meanTravelTime="43.90" duration="3"/>
    <step time="115.00" loaded="654" inserted="366" running="269" waiting="14" ended="97" meanWaitingTime="2.10" meanTravelTime="44.30" duration="2"/>
    <step time="116.00" loaded="654" inserted="368" running="270" waiting="15" ended="98" meanWaitingTime="2.08" meanTravelTime="43.99" duration="4"/>
    <step time="117.00" loaded="654" inserted="370" running="270" waiting="14" ended="100" meanWaitingTime="2.11" meanTravelTime="44.04" duration="3"/>
    <step time="118.00" loaded="654" inserted="375" running="275" waiting="13" ended="100" meanWaitingTime="2.18" meanTravelTime="44.04" duration="3"/>
    <step time="119.00" loaded="654" inserted="376" running="274" waiting="13" ended="102" meanWaitingTime="2.22" meanTravelTime="44.06" duration="3"/>
    <step time="120.00" loaded="654" inserted="378" running="276" waiting="14" ended="102" meanWaitingTime="2.21" meanTravelTime="44.06" duration="3"/>
    <step time="121.00" loaded="654" inserted="383" running="279" waiting="12" ended="104" meanWaitingTime="2.25" meanTravelTime="43.57" duration="3"/>
    <step time="122.00" loaded="654" inserted="386" running="280" waiting="13" ended="106" meanWaitingTime="2.25" meanTravelTime="43.61" duration="4"/>
    <step time="123.00" loaded="654" inserted="389" running="280" waiting="14" ended="109" meanWaitingTime="2.25" meanTravelTime="44.04" duration="4"/>
    <step time="124.00" loaded="654" inserted="392" running="279" waiting="13" ended="113" meanWaitingTime="2.28" meanTravelTime="45.19" duration="4"/>
    <step time="125.00" loaded="654" inserted="394" running="280" waiting="12" ended="114" meanWaitingTime="2.29" meanTravelTime="45.27" duration="3"/>
    <step time="126.00" loaded="654" inserted="405" running="287" waiting="11" ended="118" meanWaitingTime="2.23" meanTravelTime="45.81" duration="4"/>
    <step time="127.00" loaded="654" inserted="407" running="286" waiting="12" ended="121" meanWaitingTime="2.27" meanTravelTime="45.79" duration="3"/>
    <step time="128.00" loaded="654" inserted="409" running="283" waiting="12" ended="126" meanWaitingTime="2.26" meanTravelTime="46.37" duration="3"/>
    <step time="129.00" loaded="654" inserted="412" running="282" waiting="12" ended="130" meanWaitingTime="2.25" meanTravelTime="47.30" duration="3"/>
    <step time="130.00" loaded="654" inserted="418" running="284" waiting="11" ended="134" meanWaitingTime="2.27" meanTravelTime="47.40" duration="3"/>
    <step time="131.00" loaded="654" inserted="420" running="282" waiting="12" ended="138" meanWaitingTime="2.26" meanTravelTime="47.56" duration="3"/>
    <step time="132.00" loaded="654" inserted="421" running="279" waiting="13" ended="142" meanWaitingTime="2.25" meanTravelTime="47.26" duration="3"/>
    <step time="133.00" loaded="654" inserted="425" running="279" waiting="12" ended="146" meanWaitingTime="2.28" meanTravelTime="47.66" duration="4"/>
    <step time="134.00" loaded="654" inserted="427" running="274" waiting="13" ended="153" meanWaitingTime="2.27" meanTravelTime="47.83" duration="4"/>
    <step time="135.00" loaded="654" inserted="428" running="274" waiting="13" ended="154" meanWaitingTime="2.27" meanTravelTime="47.99" duration="4"/>
    <step time="136.00" loaded="654" inserted="431" running="272" waiting="13" ended="159" meanWaitingTime="2.30" meanTravelTime="47.91" duration="3"/>
    <step time="137.00" loaded="654" inserted="435" running="275" waiting="13" ended="160" meanWaitingTime="2.28" meanTravelTime="47.77" duration="3"/>
    <step time="138.00" loaded="654" inserted="436" running="273" waiting="14" ended="163" meanWaitingTime="2.28" meanTravelTime="47.73" duration="4"/>
    <step time="139.00" loaded="654" inserted="439" running="274" waiting="13" ended="165" meanWaitingTime="2.32" meanTravelTime="48.14" duration="3"/>
    <step time="140.00" loaded="654" inserted="441" running="275" waiting="14" ended="166" meanWaitingTime="2.31" meanTravelTime="48.02" duration="4"/>
    <step time="141.00" loaded="654" inserted="444" running="277" waiting="15" ended="167" meanWaitingTime="2.29" meanTravelTime="47.83" duration="4"/>
    <step time="142.00" loaded="654" inserted="446" running="274" waiting="14" ended="172" meanWaitingTime="2.34" meanTravelTime="49.03" duration="4"/>
    <step time="143.00" loaded="654" inserted="449" running="274" waiting="15" ended="175" meanWaitingTime="2.33" meanTravelTime="49.89" duration="3"/>
    <step time="144.00" loaded="654" inserted="461" running="283" waiting="15" ended="178" meanWaitingTime="2.26" meanTravelTime="49.92" duration="3"/>
    <step time="145.00" loaded="654" inserted="462" running="278" waiting="16" ended="184" meanWaitingTime="2.26" meanTravelTime="50.68" duration="3"/>
    <step time="146.00" loaded="654" inserted="463" running="278" waiting="16" ended="185" meanWaitingTime="2.25" meanTravelTime="51.00" duration="3"/>
    <step time="147.00" loaded="654" inserted="466" running="276" waiting="17" ended="190" meanWaitingTime="2.24" meanTravelTime="50.55" duration="3"/>
    <step time="148.00" loaded="654" inserted="470" running="276" waiting="16" ended="194" meanWaitingTime="2.29" meanTravelTime="51.37" duration="3"/>
    <step time="149.00" loaded="654" inserted="471" running="275" waiting="17" ended="196" meanWaitingTime="2.28" meanTravelTime="51.58" duration="4"/>
    <step time="150.00" loaded="654" inserted="472" running="274" waiting="18" ended="198" meanWaitingTime="2.28" meanTravelTime="51.42" duration="4"/>
    <step time="151.00" loaded="654" inserted="475" running="277" waiting="18" ended="198" meanWaitingTime="2.26" meanTravelTime="51.42" duration="3"/>
    <step time="152.00" loaded="654" inserted="479" running="280" waiting="19" ended="199" meanWaitingTime="2.24" meanTravelTime="51.82" duration="4"/>
    <step time="153.00" loaded="654" inserted="480" running="281" waiting="19" ended="199" meanWaitingTime="2.24" meanTravelTime="51.82" duration="4"/>
    <step time="154.00" loaded="654" inserted="480" running="279" waiting="20" ended="201" meanWaitingTime="2.24" meanTravelTime="51.48" duration="3"/>
    <step time="155.00" loaded="654" inserted="485" running="284" waiting="19" ended="201" meanWaitingTime="2.29" meanTravelTime="51.48" duration="3"/>
    <step time="156.00" loaded="654" inserted="489" running="287" waiting="19" ended="202" meanWaitingTime="2.34" meanTravelTime="51.30" duration="3"/>
    <step time="157.00" loaded="654" inserted="492" running="288" waiting="18" ended="204" meanWaitingTime="2.39" meanTravelTime="51.28" duration="4"/>
    <step time="158.00" loaded="654" inserted="492" running="288" waiting="19" ended="204" meanWaitingTime="2.39" meanTravelTime="51.28" duration="3"/>
    <step time="159.00" loaded="654" inserted="497" running="292" waiting="19" ended="205" meanWaitingTime="2.44" meanTravelTime="51.61" duration="4"/>
    <step time="160.00" loaded="654" inserted="501" running="296" waiting="19" ended="205" meanWaitingTime="2.42" meanTravelTime="51.61" duration="3"/>
    <step time="161.00" loaded="654" inserted="502" running="297" waiting="20" ended="205" meanWaitingTime="2.41" meanTravelTime="51.61" duration="4"/>
    <step time="162.00" loaded="654" inserted="511" running="306" waiting="19" ended="205" meanWaitingTime="2.44" meanTravelTime="51.61" duration="4"/>
    <step time="163.00" loaded="654" inserted="516" running="310" waiting="19" ended="206" meanWaitingTime="2.48" meanTravelTime="51.48" duration="4"/>
    <step time="164.00" loaded="654" inserted="520" running="313" waiting="18" ended="207" meanWaitingTime="2.52" meanTravelTime="51.45" duration="4"/>
    <step time="165.00" loaded="654" inserted="520" running="312" waiting="19" ended="208" meanWaitingTime="2.52" meanTravelTime="51.74" duration="3"/>
    <step time="166.00" loaded="654" inserted="522" running="313" waiting="19" ended="209" meanWaitingTime="2.52" meanTravelTime="51.60" duration="3"/>
    <step time="167.00" loaded="654" inserted="526" running="317" waiting="19" ended="209" meanWaitingTime="2.56" meanTravelTime="51.60" duration="6"/>
    <step time="168.00" loaded="654" inserted="529" running="319" waiting="20" ended="210" meanWaitingTime="2.55" meanTravelTime="51.53" duration="3"/>
    <step time="169.00" loaded="654" inserted="530" running="319" waiting="20" ended="211" meanWaitingTime="2.54" meanTravelTime="51.75" duration="6"/>
    <step time="170.00" loaded="654" inserted="533" running="322" waiting="21" ended="211" meanWaitingTime="2.60" meanTravelTime="51.75" duration="4"/>
    <step time="171.00" loaded="654" inserted="535" running="322" waiting="21" ended="213" meanWaitingTime="2.59" meanTravelTime="52.02" duration="6"/>
    <step time="172.00" loaded="654" inserted="538" running="323" waiting="22" ended="215" meanWaitingTime="2.57" meanTravelTime="52.28" duration="4"/>
    <step time="173.00" loaded="654" inserted="541" running="324" waiting="21" ended="217" meanWaitingTime="2.63" meanTravelTime="52.54" duration="4"/>
    <step time="174.00" loaded="654" inserted="543" running="323" waiting="23" ended="220" meanWaitingTime="2.62" meanTravelTime="53.09" duration="4"/>
    <step time="175.00" loaded="654" inserted="544" running="321" waiting="23" ended="223" meanWaitingTime="2.61" meanTravelTime="53.28" duration="4"/>
    <step time="176.00" loaded="654" inserted="548" running="322" waiting="23" ended="226" meanWaitingTime="2.66" meanTravelTime="53.37" duration="4"/>
    <step time="177.00" loaded="654" inserted="550" running="324" waiting="23" ended="226" meanWaitingTime="2.72" meanTravelTime="53.37" duration="4"/>
    <step time="178.00" loaded="654" inserted="552" running="324" waiting="24" ended="228" meanWaitingTime="2.71" meanTravelTime="53.36" duration="4"/>
    <step time="179.00" loaded="654" inserted="554" running="326" waiting="24" ended="228" meanWaitingTime="2.77" meanTravelTime="53.36" duration="4"/>
    <step time="180.00" loaded="654" inserted="562" running="332" waiting="24" ended="230" meanWaitingTime="2.80" meanTravelTime="53.44" duration="4"/>
    <step time="181.00" loaded="654" inserted="567" running="335" waiting="25" ended="232" meanWaitingTime="2.77" meanTravelTime="53.76" duration="5"/>
    <step time="182.00" loaded="654" inserted="570" running="335" waiting="26" ended="235" meanWaitingTime="2.76" meanTravelTime="53.46" duration="3"/>
    <step time="183.00" loaded="654" inserted="572" running="334" waiting="26" ended="238" meanWaitingTime="2.81" meanTravelTime="53.73" duration="3"/>
    <step time="184.00" loaded="654" inserted="574" running="334" waiting="26" ended="240" meanWaitingTime="2.87" meanTravelTime="54.20" duration="5"/>
    <step time="185.00" loaded="654" inserted="576" running="335" waiting="27" ended="241" meanWaitingTime="2.86" meanTravelTime="54.14" duration="4"/>
    <step time="186.00" loaded="654" inserted="578" running="335" waiting="28" ended="243" meanWaitingTime="2.85" meanTravelTime="54.01" duration="4"/>
    <step time="187.00" loaded="654" inserted="579" running="335" waiting="27" ended="244" meanWaitingTime="2.91" meanTravelTime="53.92" duration="4"/>