<?xml version="1.0" encoding="UTF-8"?>

<!-- generated on 3/31/2016 11:33:11 AM by SUMO gui Version 0.24.0
<?xml version="1.0" encoding="UTF-8"?>

<configuration xmlns:xsi="http://www.w3.org/2001/XMLSchema-instance" xsi:noNamespaceSchemaLocation="http://sumo.dlr.de/xsd/sumo-gui.exeConfiguration.xsd">

    <input>
        <net-file value="C:\Users\Xavier\Dropbox\Courses\Fall\ME%20199%20-%20Final%20Year%20Project\Sumo%20Projects\Huntington%20Colorado\Version%204\huntingtonColorado.net.xml"/>
        <route-files value="C:\Users\Xavier\Dropbox\Courses\Fall\ME%20199%20-%20Final%20Year%20Project\Sumo%20Projects\Huntington%20Colorado\Version%204\huntingtonColorado_exp.rou.xml"/>
        <additional-files value="C:\Users\Xavier\Dropbox\Courses\Fall\ME%20199%20-%20Final%20Year%20Project\Sumo%20Projects\Huntington%20Colorado\Version%204\huntingtonColoradoMyAdd.add.xml"/>
    </input>

    <output>
        <summary-output value="tripinfo_new_0.3.xml"/>
        <save-state.prefix value="C:\Users\Xavier\Dropbox\Courses\Fall\ME%20199%20-%20Final%20Year%20Project\Sumo%20Projects\Huntington%20Colorado\Version%204\state"/>
    </output>

    <time>
        <begin value="0"/>
    </time>

    <processing>
        <time-to-teleport value="-1"/>
    </processing>

    <emissions>
        <phemlight-path value="C:\Users\Xavier\Dropbox\Courses\Fall\ME%20199%20-%20Final%20Year%20Project\Sumo%20Projects\Huntington%20Colorado\Version%204\./PHEMlight/"/>
    </emissions>

    <traci_server>
        <remote-port value="8873"/>
    </traci_server>

</configuration>
-->

<summary xmlns:xsi="http://www.w3.org/2001/XMLSchema-instance" xsi:noNamespaceSchemaLocation="http://sumo.dlr.de/xsd/summary_file.xsd">
    <step time="0.00" loaded="21" inserted="20" running="20" waiting="0" ended="0" meanWaitingTime="0.00" meanTravelTime="-1.00" duration="0"/>
    <step time="1.00" loaded="21" inserted="20" running="20" waiting="1" ended="0" meanWaitingTime="0.00" meanTravelTime="-1.00" duration="1"/>
    <step time="2.00" loaded="654" inserted="21" running="21" waiting="0" ended="0" meanWaitingTime="0.05" meanTravelTime="-1.00" duration="2"/>
    <step time="3.00" loaded="654" inserted="25" running="25" waiting="1" ended="0" meanWaitingTime="0.04" meanTravelTime="-1.00" duration="101"/>
    <step time="4.00" loaded="654" inserted="27" running="27" waiting="1" ended="0" meanWaitingTime="0.04" meanTravelTime="-1.00" duration="3"/>
    <step time="5.00" loaded="654" inserted="28" running="28" waiting="1" ended="0" meanWaitingTime="0.11" meanTravelTime="-1.00" duration="1"/>
    <step time="6.00" loaded="654" inserted="30" running="30" waiting="1" ended="0" meanWaitingTime="0.13" meanTravelTime="-1.00" duration="1"/>
    <step time="7.00" loaded="654" inserted="35" running="35" waiting="1" ended="0" meanWaitingTime="0.14" meanTravelTime="-1.00" duration="0"/>
    <step time="8.00" loaded="654" inserted="39" running="39" waiting="1" ended="0" meanWaitingTime="0.15" meanTravelTime="-1.00" duration="2"/>
    <step time="9.00" loaded="654" inserted="39" running="38" waiting="2" ended="1" meanWaitingTime="0.15" meanTravelTime="9.00" duration="1"/>
    <step time="10.00" loaded="654" inserted="42" running="41" waiting="1" ended="1" meanWaitingTime="0.21" meanTravelTime="9.00" duration="2"/>
    <step time="11.00" loaded="654" inserted="45" running="44" waiting="1" ended="1" meanWaitingTime="0.20" meanTravelTime="9.00" duration="1"/>
    <step time="12.00" loaded="654" inserted="49" running="48" waiting="2" ended="1" meanWaitingTime="0.18" meanTravelTime="9.00" duration="1"/>
    <step time="13.00" loaded="654" inserted="50" running="49" waiting="2" ended="1" meanWaitingTime="0.24" meanTravelTime="9.00" duration="1"/>
    <step time="14.00" loaded="654" inserted="54" running="53" waiting="2" ended="1" meanWaitingTime="0.24" meanTravelTime="9.00" duration="2"/>
    <step time="15.00" loaded="654" inserted="56" running="54" waiting="1" ended="2" meanWaitingTime="0.29" meanTravelTime="12.00" duration="1"/>
    <step time="16.00" loaded="654" inserted="59" running="56" waiting="3" ended="3" meanWaitingTime="0.27" meanTravelTime="11.00" duration="1"/>
    <step time="17.00" loaded="654" inserted="62" running="59" waiting="2" ended="3" meanWaitingTime="0.32" meanTravelTime="11.00" duration="2"/>
    <step time="18.00" loaded="654" inserted="71" running="67" waiting="2" ended="4" meanWaitingTime="0.28" meanTravelTime="12.00" duration="1"/>
    <step time="19.00" loaded="654" inserted="73" running="69" waiting="4" ended="4" meanWaitingTime="0.27" meanTravelTime="12.00" duration="2"/>
    <step time="20.00" loaded="654" inserted="76" running="72" waiting="3" ended="4" meanWaitingTime="0.32" meanTravelTime="12.00" duration="1"/>
    <step time="21.00" loaded="654" inserted="79" running="74" waiting="3" ended="5" meanWaitingTime="0.33" meanTravelTime="11.60" duration="4"/>
    <step time="22.00" loaded="654" inserted="82" running="76" waiting="3" ended="6" meanWaitingTime="0.38" meanTravelTime="12.17" duration="1"/>
    <step time="23.00" loaded="654" inserted="83" running="76" waiting="4" ended="7" meanWaitingTime="0.37" meanTravelTime="12.71" duration="2"/>
    <step time="24.00" loaded="654" inserted="86" running="79" waiting="3" ended="7" meanWaitingTime="0.38" meanTravelTime="12.71" duration="1"/>
    <step time="25.00" loaded="654" inserted="90" running="82" waiting="3" ended="8" meanWaitingTime="0.43" meanTravelTime="12.50" duration="2"/>
    <step time="26.00" loaded="654" inserted="92" running="83" waiting="5" ended="9" meanWaitingTime="0.42" meanTravelTime="12.78" duration="2"/>
    <step time="27.00" loaded="654" inserted="95" running="86" waiting="3" ended="9" meanWaitingTime="0.48" meanTravelTime="12.78" duration="2"/>
    <step time="28.00" loaded="654" inserted="98" running="88" waiting="3" ended="10" meanWaitingTime="0.52" meanTravelTime="13.20" duration="2"/>
    <step time="29.00" loaded="654" inserted="101" running="91" waiting="4" ended="10" meanWaitingTime="0.54" meanTravelTime="13.20" duration="2"/>
    <step time="30.00" loaded="654" inserted="104" running="94" waiting="3" ended="10" meanWaitingTime="0.55" meanTravelTime="13.20" duration="3"/>
    <step time="31.00" loaded="654" inserted="105" running="94" waiting="3" ended="11" meanWaitingTime="0.54" meanTravelTime="13.45" duration="1"/>
    <step time="32.00" loaded="654" inserted="109" running="98" waiting="4" ended="11" meanWaitingTime="0.58" meanTravelTime="13.45" duration="2"/>
    <step time="33.00" loaded="654" inserted="113" running="100" waiting="3" ended="13" meanWaitingTime="0.57" meanTravelTime="14.00" duration="2"/>
    <step time="34.00" loaded="654" inserted="114" running="100" waiting="4" ended="14" meanWaitingTime="0.56" meanTravelTime="15.43" duration="1"/>
    <step time="35.00" loaded="654" inserted="116" running="100" waiting="5" ended="16" meanWaitingTime="0.61" meanTravelTime="15.94" duration="1"/>
    <step time="36.00" loaded="654" inserted="127" running="110" waiting="4" ended="17" meanWaitingTime="0.57" meanTravelTime="16.12" duration="1"/>
    <step time="37.00" loaded="654" inserted="130" running="113" waiting="5" ended="17" meanWaitingTime="0.55" meanTravelTime="16.12" duration="2"/>
    <step time="38.00" loaded="654" inserted="132" running="115" waiting="4" ended="17" meanWaitingTime="0.61" meanTravelTime="16.12" duration="1"/>
    <step time="39.00" loaded="654" inserted="134" running="117" waiting="5" ended="17" meanWaitingTime="0.60" meanTravelTime="16.12" duration="1"/>
    <step time="40.00" loaded="654" inserted="138" running="121" waiting="5" ended="17" meanWaitingTime="0.64" meanTravelTime="16.12" duration="2"/>
    <step time="41.00" loaded="654" inserted="139" running="122" waiting="5" ended="17" meanWaitingTime="0.68" meanTravelTime="16.12" duration="1"/>
    <step time="42.00" loaded="654" inserted="141" running="124" waiting="5" ended="17" meanWaitingTime="0.67" meanTravelTime="16.12" duration="2"/>
    <step time="43.00" loaded="654" inserted="145" running="128" waiting="5" ended="17" meanWaitingTime="0.68" meanTravelTime="16.12" duration="1"/>
    <step time="44.00" loaded="654" inserted="148" running="131" waiting="6" ended="17" meanWaitingTime="0.66" meanTravelTime="16.12" duration="3"/>
    <step time="45.00" loaded="654" inserted="151" running="134" waiting="5" ended="17" meanWaitingTime="0.72" meanTravelTime="16.12" duration="2"/>
    <step time="46.00" loaded="654" inserted="153" running="135" waiting="5" ended="18" meanWaitingTime="0.76" meanTravelTime="17.39" duration="2"/>
    <step time="47.00" loaded="654" inserted="154" running="136" waiting="5" ended="18" meanWaitingTime="0.76" meanTravelTime="17.39" duration="3"/>
    <step time="48.00" loaded="654" inserted="158" running="140" waiting="7" ended="18" meanWaitingTime="0.74" meanTravelTime="17.39" duration="2"/>
    <step time="49.00" loaded="654" inserted="160" running="141" waiting="6" ended="19" meanWaitingTime="0.79" meanTravelTime="19.05" duration="3"/>
    <step time="50.00" loaded="654" inserted="164" running="145" waiting="6" ended="19" meanWaitingTime="0.83" meanTravelTime="19.05" duration="2"/>
    <step time="51.00" loaded="654" inserted="167" running="147" waiting="6" ended="20" meanWaitingTime="0.81" meanTravelTime="19.75" duration="2"/>
    <step time="52.00" loaded="654" inserted="169" running="149" waiting="9" ended="20" meanWaitingTime="0.80" meanTravelTime="19.75" duration="2"/>
    <step time="53.00" loaded="654" inserted="171" running="149" waiting="8" ended="22" meanWaitingTime="0.86" meanTravelTime="22.41" duration="2"/>
    <step time="54.00" loaded="654" inserted="179" running="156" waiting="8" ended="23" meanWaitingTime="0.88" meanTravelTime="22.70" duration="2"/>
    <step time="55.00" loaded="654" inserted="182" running="159" waiting="10" ended="23" meanWaitingTime="0.86" meanTravelTime="22.70" duration="2"/>
    <step time="56.00" loaded="654" inserted="184" running="160" waiting="9" ended="24" meanWaitingTime="0.91" meanTravelTime="23.33" duration="3"/>
    <step time="57.00" loaded="654" inserted="185" running="161" waiting="10" ended="24" meanWaitingTime="0.90" meanTravelTime="23.33" duration="2"/>
    <step time="58.00" loaded="654" inserted="187" running="163" waiting="10" ended="24" meanWaitingTime="0.89" meanTravelTime="23.33" duration="2"/>
    <step time="59.00" loaded="654" inserted="190" running="165" waiting="12" ended="25" meanWaitingTime="0.88" meanTravelTime="24.08" duration="3"/>
    <step time="60.00" loaded="654" inserted="195" running="168" waiting="11" ended="27" meanWaitingTime="0.92" meanTravelTime="25.04" duration="1"/>
    <step time="61.00" loaded="654" inserted="196" running="167" waiting="11" ended="29" meanWaitingTime="0.97" meanTravelTime="25.90" duration="2"/>
    <step time="62.00" loaded="654" inserted="196" running="167" waiting="13" ended="29" meanWaitingTime="0.97" meanTravelTime="25.90" duration="2"/>
    <step time="63.00" loaded="654" inserted="199" running="169" waiting="14" ended="30" meanWaitingTime="0.95" meanTravelTime="25.70" duration="3"/>
    <step time="64.00" loaded="654" inserted="204" running="173" waiting="13" ended="31" meanWaitingTime="1.00" meanTravelTime="25.45" duration="2"/>
    <step time="65.00" loaded="654" inserted="207" running="176" waiting="12" ended="31" meanWaitingTime="1.04" meanTravelTime="25.45" duration="3"/>
    <step time="66.00" loaded="654" inserted="209" running="176" waiting="13" ended="33" meanWaitingTime="1.09" meanTravelTime="26.91" duration="2"/>
    <step time="67.00" loaded="654" inserted="211" running="178" waiting="13" ended="33" meanWaitingTime="1.08" meanTravelTime="26.91" duration="3"/>
    <step time="68.00" loaded="654" inserted="212" running="179" waiting="15" ended="33" meanWaitingTime="1.07" meanTravelTime="26.91" duration="2"/>
    <step time="69.00" loaded="654" inserted="215" running="182" waiting="13" ended="33" meanWaitingTime="1.12" meanTravelTime="26.91" duration="2"/>
    <step time="70.00" loaded="654" inserted="218" running="185" waiting="14" ended="33" meanWaitingTime="1.15" meanTravelTime="26.91" duration="2"/>
    <step time="71.00" loaded="654" inserted="222" running="187" waiting="15" ended="35" meanWaitingTime="1.18" meanTravelTime="27.86" duration="4"/>
    <step time="72.00" loaded="654" inserted="231" running="195" waiting="16" ended="36" meanWaitingTime="1.13" meanTravelTime="29.08" duration="3"/>
    <step time="73.00" loaded="654" inserted="231" running="194" waiting="17" ended="37" meanWaitingTime="1.13" meanTravelTime="28.89" duration="3"/>
    <step time="74.00" loaded="654" inserted="233" running="196" waiting="17" ended="37" meanWaitingTime="1.13" meanTravelTime="28.89" duration="2"/>
    <step time="75.00" loaded="654" inserted="236" running="199" waiting="18" ended="37" meanWaitingTime="1.12" meanTravelTime="28.89" duration="2"/>
    <step time="76.00" loaded="654" inserted="238" running="201" waiting="17" ended="37" meanWaitingTime="1.17" meanTravelTime="28.89" duration="2"/>
    <step time="77.00" loaded="654" inserted="241" running="204" waiting="17" ended="37" meanWaitingTime="1.21" meanTravelTime="28.89" duration="2"/>
    <step time="78.00" loaded="654" inserted="243" running="206" waiting="18" ended="37" meanWaitingTime="1.20" meanTravelTime="28.89" duration="2"/>
    <step time="79.00" loaded="654" inserted="245" running="206" waiting="19" ended="39" meanWaitingTime="1.19" meanTravelTime="29.38" duration="4"/>
    <step time="80.00" loaded="654" inserted="249" running="210" waiting="20" ended="39" meanWaitingTime="1.17" meanTravelTime="29.38" duration="4"/>
    <step time="81.00" loaded="654" inserted="252" running="211" waiting="20" ended="41" meanWaitingTime="1.21" meanTravelTime="29.98" duration="4"/>
    <step time="82.00" loaded="654" inserted="253" running="211" waiting="20" ended="42" meanWaitingTime="1.26" meanTravelTime="31.12" duration="3"/>
    <step time="83.00" loaded="654" inserted="254" running="212" waiting="20" ended="42" meanWaitingTime="1.26" meanTravelTime="31.12" duration="3"/>
    <step time="84.00" loaded="654" inserted="258" running="214" waiting="21" ended="44" meanWaitingTime="1.29" meanTravelTime="33.20" duration="2"/>
    <step time="85.00" loaded="654" inserted="260" running="216" waiting="22" ended="44" meanWaitingTime="1.34" meanTravelTime="33.20" duration="2"/>
    <step time="86.00" loaded="654" inserted="262" running="216" waiting="23" ended="46" meanWaitingTime="1.33" meanTravelTime="34.20" duration="3"/>
    <step time="87.00" loaded="654" inserted="264" running="217" waiting="22" ended="47" meanWaitingTime="1.33" meanTravelTime="35.32" duration="2"/>
    <step time="88.00" loaded="654" inserted="266" running="219" waiting="24" ended="47" meanWaitingTime="1.32" meanTravelTime="35.32" duration="3"/>
    <step time="89.00" loaded="654" inserted="269" running="221" waiting="24" ended="48" meanWaitingTime="1.36" meanTravelTime="36.06" duration="3"/>
    <step time="90.00" loaded="654" inserted="276" running="228" waiting="25" ended="48" meanWaitingTime="1.33" meanTravelTime="36.06" duration="2"/>
    <step time="91.00" loaded="654" inserted="278" running="229" waiting="27" ended="49" meanWaitingTime="1.32" meanTravelTime="36.45" duration="2"/>
    <step time="92.00" loaded="654" inserted="281" running="232" waiting="28" ended="49" meanWaitingTime="1.31" meanTravelTime="36.45" duration="4"/>
    <step time="93.00" loaded="654" inserted="281" running="232" waiting="29" ended="49" meanWaitingTime="1.31" meanTravelTime="36.45" duration="4"/>
    <step time="94.00" loaded="654" inserted="285" running="236" waiting="28" ended="49" meanWaitingTime="1.36" meanTravelTime="36.45" duration="2"/>
    <step time="95.00" loaded="654" inserted="287" running="238" waiting="28" ended="49" meanWaitingTime="1.36" meanTravelTime="36.45" duration="3"/>
    <step time="96.00" loaded="654" inserted="291" running="241" waiting="31" ended="50" meanWaitingTime="1.34" meanTravelTime="37.64" duration="3"/>
    <step time="97.00" loaded="654" inserted="293" running="243" waiting="30" ended="50" meanWaitingTime="1.40" meanTravelTime="37.64" duration="3"/>
    <step time="98.00" loaded="654" inserted="294" running="244" waiting="31" ended="50" meanWaitingTime="1.46" meanTravelTime="37.64" duration="4"/>
    <step time="99.00" loaded="654" inserted="295" running="244" waiting="31" ended="51" meanWaitingTime="1.45" meanTravelTime="38.49" duration="5"/>
    <step time="100.00" loaded="654" inserted="299" running="247" waiting="31" ended="52" meanWaitingTime="1.76" meanTravelTime="38.63" duration="3"/>
    <step time="101.00" loaded="654" inserted="305" running="251" waiting="29" ended="54" meanWaitingTime="1.97" meanTravelTime="39.46" duration="2"/>
    <step time="102.00" loaded="654" inserted="306" running="250" waiting="29" ended="56" meanWaitingTime="2.03" meanTravelTime="39.61" duration="3"/>
    <step time="103.00" loaded="654" inserted="310" running="252" waiting="28" ended="58" meanWaitingTime="2.01" meanTravelTime="40.84" duration="4"/>
    <step time="104.00" loaded="654" inserted="314" running="256" waiting="29" ended="58" meanWaitingTime="2.20" meanTravelTime="40.84" duration="2"/>
    <step time="105.00" loaded="654" inserted="317" running="259" waiting="28" ended="58" meanWaitingTime="2.43" meanTravelTime="40.84" duration="3"/>
    <step time="106.00" loaded="654" inserted="319" running="260" waiting="26" ended="59" meanWaitingTime="2.55" meanTravelTime="40.73" duration="3"/>
    <step time="107.00" loaded="654" inserted="320" running="258" waiting="30" ended="62" meanWaitingTime="2.55" meanTravelTime="43.18" duration="5"/>
    <step time="108.00" loaded="654" inserted="330" running="267" waiting="29" ended="63" meanWaitingTime="2.54" meanTravelTime="43.89" duration="4"/>
    <step time="109.00" loaded="654" inserted="332" running="267" waiting="30" ended="65" meanWaitingTime="2.53" meanTravelTime="44.72" duration="4"/>
    <step time="110.00" loaded="654" inserted="333" running="267" waiting="30" ended="66" meanWaitingTime="2.52" meanTravelTime="45.35" duration="3"/>
    <step time="111.00" loaded="654" inserted="337" running="268" waiting="32" ended="69" meanWaitingTime="2.57" meanTravelTime="46.93" duration="3"/>
    <step time="112.00" loaded="654" inserted="342" running="271" waiting="30" ended="71" meanWaitingTime="2.67" meanTravelTime="47.85" duration="4"/>
    <step time="113.00" loaded="654" inserted="346" running="274" waiting="28" ended="72" meanWaitingTime="2.85" meanTravelTime="48.58" duration="3"/>
    <step time="114.00" loaded="654" inserted="348" running="274" waiting="28" ended="74" meanWaitingTime="2.96" meanTravelTime="48.32" duration="5"/>
    <step time="115.00" loaded="654" inserted="351" running="275" waiting="29" ended="76" meanWaitingTime="2.93" meanTravelTime="47.82" duration="3"/>
    <step time="116.00" loaded="654" inserted="354" running="276" waiting="29" ended="78" meanWaitingTime="2.97" meanTravelTime="47.33" duration="4"/>
    <step time="117.00" loaded="654" inserted="355" running="277" waiting="29" ended="78" meanWaitingTime="3.08" meanTravelTime="47.33" duration="4"/>
    <step time="118.00" loaded="654" inserted="358" running="279" waiting="30" ended="79" meanWaitingTime="3.24" meanTravelTime="47.09" duration="4"/>
    <step time="119.00" loaded="654" inserted="361" running="282" waiting="28" ended="79" meanWaitingTime="3.39" meanTravelTime="47.09" duration="5"/>
    <step time="120.00" loaded="654" inserted="366" running="286" waiting="26" ended="80" meanWaitingTime="3.45" meanTravelTime="46.75" duration="3"/>
    <step time="121.00" loaded="654" inserted="370" running="290" waiting="25" ended="80" meanWaitingTime="3.46" meanTravelTime="46.75" duration="3"/>
    <step time="122.00" loaded="654" inserted="372" running="290" waiting="27" ended="82" meanWaitingTime="3.54" meanTravelTime="47.29" duration="4"/>
    <step time="123.00" loaded="654" inserted="375" running="292" waiting="28" ended="83" meanWaitingTime="3.58" meanTravelTime="47.28" duration="4"/>
    <step time="124.00" loaded="654" inserted="376" running="290" waiting="29" ended="86" meanWaitingTime="3.57" meanTravelTime="48.00" duration="4"/>
    <step time="125.00" loaded="654" inserted="377" running="289" waiting="29" ended="88" meanWaitingTime="3.56" meanTravelTime="48.93" duration="4"/>
    <step time="126.00" loaded="654" inserted="387" running="299" waiting="29" ended="88" meanWaitingTime="3.65" meanTravelTime="48.93" duration="4"/>
    <step time="127.00" loaded="654" inserted="391" running="302" waiting="28" ended="89" meanWaitingTime="3.79" meanTravelTime="49.34" duration="3"/>
    <step time="128.00" loaded="654" inserted="394" running="302" waiting="27" ended="92" meanWaitingTime="3.77" meanTravelTime="49.61" duration="3"/>
    <step time="129.00" loaded="654" inserted="397" running="301" waiting="27" ended="96" meanWaitingTime="3.82" meanTravelTime="50.74" duration="4"/>
    <step time="130.00" loaded="654" inserted="402" running="304" waiting="27" ended="98" meanWaitingTime="3.86" meanTravelTime="51.13" duration="4"/>
    <step time="131.00" loaded="654" inserted="405" running="306" waiting="27" ended="99" meanWaitingTime="3.85" meanTravelTime="51.18" duration="4"/>
    <step time="132.00" loaded="654" inserted="406" running="306" waiting="28" ended="100" meanWaitingTime="3.84" meanTravelTime="50.81" duration="4"/>
    <step time="133.00" loaded="654" inserted="410" running="305" waiting="27" ended="105" meanWaitingTime="3.95" meanTravelTime="52.72" duration="3"/>
    <step time="134.00" loaded="654" inserted="412" running="306" waiting="28" ended="106" meanWaitingTime="3.93" meanTravelTime="53.01" duration="4"/>
    <step time="135.00" loaded="654" inserted="412" running="302" waiting="29" ended="110" meanWaitingTime="3.93" meanTravelTime="53.13" duration="3"/>
    <step time="136.00" loaded="654" inserted="415" running="303" waiting="29" ended="112" meanWaitingTime="3.97" meanTravelTime="52.98" duration="4"/>
    <step time="137.00" loaded="654" inserted="417" running="303" waiting="31" ended="114" meanWaitingTime="3.98" meanTravelTime="53.43" duration="5"/>
    <step time="138.00" loaded="654" inserted="419" running="304" waiting="31" ended="115" meanWaitingTime="4.04" meanTravelTime="53.33" duration="7"/>
    <step time="139.00" loaded="654" inserted="424" running="307" waiting="28" ended="117" meanWaitingTime="4.15" meanTravelTime="54.32" duration="4"/>
    <step time="140.00" loaded="654" inserted="427" running="306" waiting="28" ended="121" meanWaitingTime="4.18" meanTravelTime="53.43" duration="3"/>
    <step time="141.00" loaded="654" inserted="429" running="307" waiting="30" ended="122" meanWaitingTime="4.16" meanTravelTime="53.92" duration="5"/>
    <step time="142.00" loaded="654" inserted="430" running="305" waiting="30" ended="125" meanWaitingTime="4.15" meanTravelTime="54.64" duration="4"/>
    <step time="143.00" loaded="654" inserted="433" running="306" waiting="31" ended="127" meanWaitingTime="4.20" meanTravelTime="54.97" duration="4"/>
    <step time="144.00" loaded="654" inserted="444" running="316" waiting="32" ended="128" meanWaitingTime="4.18" meanTravelTime="55.17" duration="4"/>
    <step time="145.00" loaded="654" inserted="446" running="315" waiting="32" ended="131" meanWaitingTime="4.25" meanTravelTime="56.18" duration="4"/>
    <step time="146.00" loaded="654" inserted="449" running="312" waiting="30" ended="137" meanWaitingTime="4.30" meanTravelTime="56.64" duration="5"/>
    <step time="147.00" loaded="654" inserted="452" running="314" waiting="31" ended="138" meanWaitingTime="4.31" meanTravelTime="57.04" duration="4"/>
    <step time="148.00" loaded="654" inserted="453" running="311" waiting="33" ended="142" meanWaitingTime="4.30" meanTravelTime="56.62" duration="4"/>
    <step time="149.00" loaded="654" inserted="455" running="312" waiting="33" ended="143" meanWaitingTime="4.29" meanTravelTime="56.52" duration="4"/>
    <step time="150.00" loaded="654" inserted="456" running="310" waiting="34" ended="146" meanWaitingTime="4.30" meanTravelTime="57.11" duration="5"/>
    <step time="151.00" loaded="654" inserted="459" running="312" waiting="34" ended="147" meanWaitingTime="4.36" meanTravelTime="57.12" duration="4"/>
    <step time="152.00" loaded="654" inserted="464" running="315" waiting="34" ended="149" meanWaitingTime="4.38" meanTravelTime="57.70" duration="4"/>
    <step time="153.00" loaded="654" inserted="466" running="315" waiting="33" ended="151" meanWaitingTime="4.41" meanTravelTime="57.61" duration="4"/>
    <step time="154.00" loaded="654" inserted="466" running="314" waiting="34" ended="152" meanWaitingTime="4.41" meanTravelTime="57.51" duration="4"/>
    <step time="155.00" loaded="654" inserted="470" running="314" waiting="34" ended="156" meanWaitingTime="4.39" meanTravelTime="57.85" duration="3"/>
    <step time="156.00" loaded="654" inserted="474" running="316" waiting="34" ended="158" meanWaitingTime="4.45" meanTravelTime="57.68" duration="3"/>
    <step time="157.00" loaded="654" inserted="475" running="316" waiting="35" ended="159" meanWaitingTime="4.44" meanTravelTime="57.69" duration="3"/>
    <step time="158.00" loaded="654" inserted="476" running="316" waiting="35" ended="160" meanWaitingTime="4.45" meanTravelTime="57.79" duration="5"/>
    <step time="159.00" loaded="654" inserted="479" running="319" waiting="37" ended="160" meanWaitingTime="4.43" meanTravelTime="57.79" duration="3"/>
    <step time="160.00" loaded="654" inserted="482" running="321" waiting="38" ended="161" meanWaitingTime="4.40" meanTravelTime="58.16" duration="3"/>
    <step time="161.00" loaded="654" inserted="486" running="323" waiting="36" ended="163" meanWaitingTime="4.52" meanTravelTime="58.45" duration="4"/>
    <step time="162.00" loaded="654" inserted="494" running="330" waiting="36" ended="164" meanWaitingTime="4.54" meanTravelTime="58.89" duration="4"/>
    <step time="163.00" loaded="654" inserted="496" running="331" waiting="39" ended="165" meanWaitingTime="4.53" meanTravelTime="59.34" duration="4"/>
    <step time="164.00" loaded="654" inserted="499" running="332" waiting="39" ended="167" meanWaitingTime="4.51" meanTravelTime="59.20" duration="4"/>
    <step time="165.00" loaded="654" inserted="499" running="332" waiting="40" ended="167" meanWaitingTime="4.51" meanTravelTime="59.20" duration="4"/>
    <step time="166.00" loaded="654" inserted="501" running="332" waiting="40" ended="169" meanWaitingTime="4.59" meanTravelTime="59.37" duration="4"/>
    <step time="167.00" loaded="654" inserted="503" running="334" waiting="42" ended="169" meanWaitingTime="4.57" meanTravelTime="59.37" duration="3"/>
    <step time="168.00" loaded="654" inserted="508" running="339" waiting="41" ended="169" meanWaitingTime="4.58" meanTravelTime="59.37" duration="4"/>
    <step time="169.00" loaded="654" inserted="511" running="341" waiting="39" ended="170" meanWaitingTime="4.57" meanTravelTime="59.59" duration="3"/>
    <step time="170.00" loaded="654" inserted="511" running="339" waiting="43" ended="172" meanWaitingTime="4.57" meanTravelTime="60.00" duration="4"/>
    <step time="171.00" loaded="654" inserted="515" running="342" waiting="41" ended="173" meanWaitingTime="4.63" meanTravelTime="60.33" duration="4"/>
    <step time="172.00" loaded="654" inserted="520" running="345" waiting="40" ended="175" meanWaitingTime="4.69" meanTravelTime="60.40" duration="4"/>
    <step time="173.00" loaded="654" inserted="521" running="345" waiting="41" ended="176" meanWaitingTime="4.68" meanTravelTime="60.65" duration="4"/>
    <step time="174.00" loaded="654" inserted="522" running="343" waiting="44" ended="179" meanWaitingTime="4.67" meanTravelTime="61.28" duration="4"/>
    <step time="175.00" loaded="654" inserted="524" running="344" waiting="43" ended="180" meanWaitingTime="4.66" meanTravelTime="61.39" duration="4"/>
    <step time="176.00" loaded="654" inserted="528" running="345" waiting="43" ended="183" meanWaitingTime="4.65" meanTravelTime="61.74" duration="4"/>
    <step time="177.00" loaded="654" inserted="530" running="345" waiting="43" ended="185" meanWaitingTime="4.74" meanTravelTime="61.65" duration="4"/>
    <step time="178.00" loaded="654" inserted="533" running="348" waiting="43" ended="185" meanWaitingTime="4.71" meanTravelTime="61.65" duration="4"/>
    <step time="179.00" loaded="654" inserted="533" running="345" waiting="45" ended="188" meanWaitingTime="4.71" meanTravelTime="61.60" duration="5"/>
    <step time="180.00" loaded="654" inserted="539" running="351" waiting="47" ended="188" meanWaitingTime="4.66" meanTravelTime="61.60" duration="4"/>
    <step time="181.00" loaded="654" inserted="544" running="353" waiting="48" ended="191" meanWaitingTime="4.62" meanTravelTime="61.76" duration="4"/>
    <step time="182.00" loaded="654" inserted="547" running="354" waiting="49" ended="193" meanWaitingTime="4.70" meanTravelTime="61.92" duration="4"/>
    <step time="183.00" loaded="654" inserted="550" running="356" waiting="48" ended="194" meanWaitingTime="4.79" meanTravelTime="62.27" duration="4"/>
    <step time="184.00" loaded="654" inserted="552" running="358" waiting="48" ended="194" meanWaitingTime="4.77" meanTravelTime="62.27" duration="3"/>
    <step time="185.00" loaded="654" inserted="554" running="359" waiting="49" ended="195" meanWaitingTime="4.75" meanTravelTime="62.22" duration="3"/>
    <step time="186.00" loaded="654" inserted="556" running="360" waiting="50" ended="196" meanWaitingTime="4.84" meanTravelTime="62.19" duration="5"/>
    <step time="187.00" loaded="654" inserted="558" running="359" waiting="48" ended="199" meanWaitingTime="4.93" meanTravelTime="62.58" duration="4"/>