<?xml version="1.0" encoding="UTF-8"?>

<!-- generated on 3/30/2016 12:04:14 PM by SUMO gui Version 0.24.0
<?xml version="1.0" encoding="UTF-8"?>

<configuration xmlns:xsi="http://www.w3.org/2001/XMLSchema-instance" xsi:noNamespaceSchemaLocation="http://sumo.dlr.de/xsd/sumo-gui.exeConfiguration.xsd">

    <input>
        <net-file value="C:\Users\Xavier\Dropbox\Courses\Fall\ME%20199%20-%20Final%20Year%20Project\Sumo%20Projects\Huntington%20Colorado\Version%204\huntingtonColorado.net.xml"/>
        <route-files value="C:\Users\Xavier\Dropbox\Courses\Fall\ME%20199%20-%20Final%20Year%20Project\Sumo%20Projects\Huntington%20Colorado\Version%204\huntingtonColorado_exp.rou.xml"/>
        <additional-files value="C:\Users\Xavier\Dropbox\Courses\Fall\ME%20199%20-%20Final%20Year%20Project\Sumo%20Projects\Huntington%20Colorado\Version%204\huntingtonColoradoMyAdd.add.xml"/>
    </input>

    <output>
        <summary-output value="tripinfo_new_0.5.xml"/>
        <save-state.prefix value="C:\Users\Xavier\Dropbox\Courses\Fall\ME%20199%20-%20Final%20Year%20Project\Sumo%20Projects\Huntington%20Colorado\Version%204\state"/>
    </output>

    <time>
        <begin value="0"/>
    </time>

    <processing>
        <time-to-teleport value="-1"/>
    </processing>

    <emissions>
        <phemlight-path value="C:\Users\Xavier\Dropbox\Courses\Fall\ME%20199%20-%20Final%20Year%20Project\Sumo%20Projects\Huntington%20Colorado\Version%204\./PHEMlight/"/>
    </emissions>

    <traci_server>
        <remote-port value="8873"/>
    </traci_server>

</configuration>
-->

<summary xmlns:xsi="http://www.w3.org/2001/XMLSchema-instance" xsi:noNamespaceSchemaLocation="http://sumo.dlr.de/xsd/summary_file.xsd">
    <step time="0.00" loaded="21" inserted="20" running="20" waiting="0" ended="0" meanWaitingTime="0.00" meanTravelTime="-1.00" duration="0"/>
    <step time="1.00" loaded="21" inserted="20" running="20" waiting="1" ended="0" meanWaitingTime="0.00" meanTravelTime="-1.00" duration="1"/>
    <step time="2.00" loaded="654" inserted="21" running="21" waiting="0" ended="0" meanWaitingTime="0.05" meanTravelTime="-1.00" duration="0"/>
    <step time="3.00" loaded="654" inserted="25" running="25" waiting="1" ended="0" meanWaitingTime="0.04" meanTravelTime="-1.00" duration="108"/>
    <step time="4.00" loaded="654" inserted="27" running="27" waiting="1" ended="0" meanWaitingTime="0.04" meanTravelTime="-1.00" duration="1"/>
    <step time="5.00" loaded="654" inserted="28" running="28" waiting="1" ended="0" meanWaitingTime="0.11" meanTravelTime="-1.00" duration="0"/>
    <step time="6.00" loaded="654" inserted="31" running="31" waiting="0" ended="0" meanWaitingTime="0.13" meanTravelTime="-1.00" duration="1"/>
    <step time="7.00" loaded="654" inserted="35" running="35" waiting="1" ended="0" meanWaitingTime="0.11" meanTravelTime="-1.00" duration="1"/>
    <step time="8.00" loaded="654" inserted="39" running="39" waiting="1" ended="0" meanWaitingTime="0.13" meanTravelTime="-1.00" duration="1"/>
    <step time="9.00" loaded="654" inserted="40" running="39" waiting="1" ended="1" meanWaitingTime="0.13" meanTravelTime="9.00" duration="1"/>
    <step time="10.00" loaded="654" inserted="42" running="41" waiting="1" ended="1" meanWaitingTime="0.17" meanTravelTime="9.00" duration="1"/>
    <step time="11.00" loaded="654" inserted="45" running="44" waiting="1" ended="1" meanWaitingTime="0.16" meanTravelTime="9.00" duration="1"/>
    <step time="12.00" loaded="654" inserted="49" running="48" waiting="2" ended="1" meanWaitingTime="0.14" meanTravelTime="9.00" duration="1"/>
    <step time="13.00" loaded="654" inserted="51" running="50" waiting="1" ended="1" meanWaitingTime="0.20" meanTravelTime="9.00" duration="2"/>
    <step time="14.00" loaded="654" inserted="54" running="52" waiting="2" ended="2" meanWaitingTime="0.19" meanTravelTime="11.50" duration="2"/>
    <step time="15.00" loaded="654" inserted="55" running="53" waiting="2" ended="2" meanWaitingTime="0.18" meanTravelTime="11.50" duration="2"/>
    <step time="16.00" loaded="654" inserted="60" running="57" waiting="2" ended="3" meanWaitingTime="0.23" meanTravelTime="10.67" duration="1"/>
    <step time="17.00" loaded="654" inserted="61" running="58" waiting="3" ended="3" meanWaitingTime="0.23" meanTravelTime="10.67" duration="2"/>
    <step time="18.00" loaded="654" inserted="70" running="66" waiting="3" ended="4" meanWaitingTime="0.20" meanTravelTime="11.75" duration="3"/>
    <step time="19.00" loaded="654" inserted="74" running="70" waiting="3" ended="4" meanWaitingTime="0.26" meanTravelTime="11.75" duration="2"/>
    <step time="20.00" loaded="654" inserted="76" running="71" waiting="3" ended="5" meanWaitingTime="0.25" meanTravelTime="11.20" duration="1"/>
    <step time="21.00" loaded="654" inserted="78" running="72" waiting="4" ended="6" meanWaitingTime="0.24" meanTravelTime="11.67" duration="1"/>
    <step time="22.00" loaded="654" inserted="82" running="75" waiting="3" ended="7" meanWaitingTime="0.30" meanTravelTime="12.14" duration="3"/>
    <step time="23.00" loaded="654" inserted="83" running="75" waiting="4" ended="8" meanWaitingTime="0.30" meanTravelTime="11.75" duration="2"/>
    <step time="24.00" loaded="654" inserted="86" running="78" waiting="3" ended="8" meanWaitingTime="0.37" meanTravelTime="11.75" duration="2"/>
    <step time="25.00" loaded="654" inserted="89" running="79" waiting="4" ended="10" meanWaitingTime="0.36" meanTravelTime="12.20" duration="1"/>
    <step time="26.00" loaded="654" inserted="92" running="82" waiting="5" ended="10" meanWaitingTime="0.35" meanTravelTime="12.20" duration="2"/>
    <step time="27.00" loaded="654" inserted="93" running="82" waiting="5" ended="11" meanWaitingTime="0.34" meanTravelTime="11.91" duration="1"/>
    <step time="28.00" loaded="654" inserted="96" running="85" waiting="5" ended="11" meanWaitingTime="0.43" meanTravelTime="11.91" duration="1"/>
    <step time="29.00" loaded="654" inserted="101" running="90" waiting="4" ended="11" meanWaitingTime="0.49" meanTravelTime="11.91" duration="3"/>
    <step time="30.00" loaded="654" inserted="102" running="90" waiting="5" ended="12" meanWaitingTime="0.48" meanTravelTime="12.25" duration="1"/>
    <step time="31.00" loaded="654" inserted="103" running="90" waiting="5" ended="13" meanWaitingTime="0.48" meanTravelTime="12.54" duration="3"/>
    <step time="32.00" loaded="654" inserted="107" running="94" waiting="6" ended="13" meanWaitingTime="0.46" meanTravelTime="12.54" duration="1"/>
    <step time="33.00" loaded="654" inserted="111" running="96" waiting="5" ended="15" meanWaitingTime="0.53" meanTravelTime="13.27" duration="2"/>
    <step time="34.00" loaded="654" inserted="113" running="98" waiting="5" ended="15" meanWaitingTime="0.60" meanTravelTime="13.27" duration="2"/>
    <step time="35.00" loaded="654" inserted="115" running="99" waiting="6" ended="16" meanWaitingTime="0.59" meanTravelTime="14.63" duration="2"/>
    <step time="36.00" loaded="654" inserted="126" running="109" waiting="5" ended="17" meanWaitingTime="0.62" meanTravelTime="14.76" duration="1"/>
    <step time="37.00" loaded="654" inserted="129" running="111" waiting="6" ended="18" meanWaitingTime="0.60" meanTravelTime="14.94" duration="2"/>
    <step time="38.00" loaded="654" inserted="130" running="112" waiting="6" ended="18" meanWaitingTime="0.60" meanTravelTime="14.94" duration="2"/>
    <step time="39.00" loaded="654" inserted="133" running="115" waiting="6" ended="18" meanWaitingTime="0.67" meanTravelTime="14.94" duration="2"/>
    <step time="40.00" loaded="654" inserted="138" running="120" waiting="5" ended="18" meanWaitingTime="0.72" meanTravelTime="14.94" duration="1"/>
    <step time="41.00" loaded="654" inserted="138" running="120" waiting="6" ended="18" meanWaitingTime="0.72" meanTravelTime="14.94" duration="3"/>
    <step time="42.00" loaded="654" inserted="140" running="122" waiting="6" ended="18" meanWaitingTime="0.71" meanTravelTime="14.94" duration="1"/>
    <step time="43.00" loaded="654" inserted="144" running="126" waiting="6" ended="18" meanWaitingTime="0.76" meanTravelTime="14.94" duration="2"/>
    <step time="44.00" loaded="654" inserted="146" running="128" waiting="8" ended="18" meanWaitingTime="0.75" meanTravelTime="14.94" duration="2"/>
    <step time="45.00" loaded="654" inserted="147" running="129" waiting="9" ended="18" meanWaitingTime="0.75" meanTravelTime="14.94" duration="2"/>
    <step time="46.00" loaded="654" inserted="151" running="133" waiting="7" ended="18" meanWaitingTime="0.83" meanTravelTime="14.94" duration="2"/>
    <step time="47.00" loaded="654" inserted="152" running="134" waiting="7" ended="18" meanWaitingTime="0.82" meanTravelTime="14.94" duration="1"/>
    <step time="48.00" loaded="654" inserted="157" running="139" waiting="8" ended="18" meanWaitingTime="0.80" meanTravelTime="14.94" duration="2"/>
    <step time="49.00" loaded="654" inserted="158" running="139" waiting="8" ended="19" meanWaitingTime="0.88" meanTravelTime="16.74" duration="3"/>
    <step time="50.00" loaded="654" inserted="163" running="144" waiting="7" ended="19" meanWaitingTime="0.94" meanTravelTime="16.74" duration="4"/>
    <step time="51.00" loaded="654" inserted="166" running="146" waiting="7" ended="20" meanWaitingTime="0.92" meanTravelTime="17.55" duration="2"/>
    <step time="52.00" loaded="654" inserted="169" running="147" waiting="9" ended="22" meanWaitingTime="0.91" meanTravelTime="20.00" duration="2"/>
    <step time="53.00" loaded="654" inserted="170" running="147" waiting="9" ended="23" meanWaitingTime="0.98" meanTravelTime="21.43" duration="2"/>
    <step time="54.00" loaded="654" inserted="177" running="153" waiting="10" ended="24" meanWaitingTime="1.02" meanTravelTime="22.04" duration="1"/>
    <step time="55.00" loaded="654" inserted="182" running="158" waiting="10" ended="24" meanWaitingTime="1.01" meanTravelTime="22.04" duration="3"/>
    <step time="56.00" loaded="654" inserted="184" running="160" waiting="9" ended="24" meanWaitingTime="1.01" meanTravelTime="22.04" duration="3"/>
    <step time="57.00" loaded="654" inserted="186" running="162" waiting="9" ended="24" meanWaitingTime="1.07" meanTravelTime="22.04" duration="4"/>
    <step time="58.00" loaded="654" inserted="188" running="163" waiting="9" ended="25" meanWaitingTime="1.13" meanTravelTime="22.80" duration="2"/>
    <step time="59.00" loaded="654" inserted="192" running="167" waiting="10" ended="25" meanWaitingTime="1.11" meanTravelTime="22.80" duration="2"/>
    <step time="60.00" loaded="654" inserted="196" running="170" waiting="10" ended="26" meanWaitingTime="1.09" meanTravelTime="23.85" duration="2"/>
    <step time="61.00" loaded="654" inserted="197" running="168" waiting="10" ended="29" meanWaitingTime="1.16" meanTravelTime="24.83" duration="3"/>
    <step time="62.00" loaded="654" inserted="199" running="170" waiting="10" ended="29" meanWaitingTime="1.17" meanTravelTime="24.83" duration="3"/>
    <step time="63.00" loaded="654" inserted="201" running="172" waiting="12" ended="29" meanWaitingTime="1.15" meanTravelTime="24.83" duration="2"/>
    <step time="64.00" loaded="654" inserted="205" running="176" waiting="12" ended="29" meanWaitingTime="1.21" meanTravelTime="24.83" duration="3"/>
    <step time="65.00" loaded="654" inserted="207" running="177" waiting="12" ended="30" meanWaitingTime="1.20" meanTravelTime="25.53" duration="2"/>
    <step time="66.00" loaded="654" inserted="208" running="177" waiting="14" ended="31" meanWaitingTime="1.19" meanTravelTime="26.23" duration="2"/>
    <step time="67.00" loaded="654" inserted="211" running="180" waiting="13" ended="31" meanWaitingTime="1.27" meanTravelTime="26.23" duration="2"/>
    <step time="68.00" loaded="654" inserted="213" running="181" waiting="14" ended="32" meanWaitingTime="1.27" meanTravelTime="25.97" duration="2"/>
    <step time="69.00" loaded="654" inserted="215" running="182" waiting="13" ended="33" meanWaitingTime="1.26" meanTravelTime="26.52" duration="2"/>
    <step time="70.00" loaded="654" inserted="218" running="184" waiting="14" ended="34" meanWaitingTime="1.33" meanTravelTime="26.85" duration="3"/>
    <step time="71.00" loaded="654" inserted="221" running="186" waiting="16" ended="35" meanWaitingTime="1.39" meanTravelTime="28.11" duration="4"/>
    <step time="72.00" loaded="654" inserted="232" running="194" waiting="15" ended="38" meanWaitingTime="1.33" meanTravelTime="28.95" duration="3"/>
    <step time="73.00" loaded="654" inserted="232" running="194" waiting="16" ended="38" meanWaitingTime="1.33" meanTravelTime="28.95" duration="3"/>
    <step time="74.00" loaded="654" inserted="234" running="196" waiting="16" ended="38" meanWaitingTime="1.40" meanTravelTime="28.95" duration="3"/>
    <step time="75.00" loaded="654" inserted="237" running="198" waiting="17" ended="39" meanWaitingTime="1.38" meanTravelTime="29.03" duration="2"/>
    <step time="76.00" loaded="654" inserted="238" running="199" waiting="17" ended="39" meanWaitingTime="1.38" meanTravelTime="29.03" duration="2"/>
    <step time="77.00" loaded="654" inserted="241" running="202" waiting="17" ended="39" meanWaitingTime="1.44" meanTravelTime="29.03" duration="3"/>
    <step time="78.00" loaded="654" inserted="243" running="203" waiting="18" ended="40" meanWaitingTime="1.51" meanTravelTime="29.20" duration="2"/>
    <step time="79.00" loaded="654" inserted="246" running="206" waiting="18" ended="40" meanWaitingTime="1.50" meanTravelTime="29.20" duration="2"/>
    <step time="80.00" loaded="654" inserted="250" running="210" waiting="19" ended="40" meanWaitingTime="1.47" meanTravelTime="29.20" duration="2"/>
    <step time="81.00" loaded="654" inserted="252" running="211" waiting="20" ended="41" meanWaitingTime="1.54" meanTravelTime="29.29" duration="2"/>
    <step time="82.00" loaded="654" inserted="254" running="213" waiting="19" ended="41" meanWaitingTime="1.61" meanTravelTime="29.29" duration="2"/>
    <step time="83.00" loaded="654" inserted="254" running="212" waiting="20" ended="42" meanWaitingTime="1.61" meanTravelTime="30.48" duration="2"/>
    <step time="84.00" loaded="654" inserted="258" running="215" waiting="21" ended="43" meanWaitingTime="1.59" meanTravelTime="31.72" duration="3"/>
    <step time="85.00" loaded="654" inserted="259" running="216" waiting="23" ended="43" meanWaitingTime="1.58" meanTravelTime="31.72" duration="3"/>
    <step time="86.00" loaded="654" inserted="263" running="218" waiting="22" ended="45" meanWaitingTime="1.65" meanTravelTime="33.33" duration="2"/>
    <step time="87.00" loaded="654" inserted="264" running="219" waiting="22" ended="45" meanWaitingTime="1.64" meanTravelTime="33.33" duration="2"/>
    <step time="88.00" loaded="654" inserted="266" running="220" waiting="24" ended="46" meanWaitingTime="1.63" meanTravelTime="33.59" duration="3"/>
    <step time="89.00" loaded="654" inserted="267" running="220" waiting="26" ended="47" meanWaitingTime="1.62" meanTravelTime="33.57" duration="4"/>
    <step time="90.00" loaded="654" inserted="275" running="226" waiting="26" ended="49" meanWaitingTime="1.58" meanTravelTime="34.04" duration="4"/>
    <step time="91.00" loaded="654" inserted="277" running="228" waiting="28" ended="49" meanWaitingTime="1.57" meanTravelTime="34.04" duration="4"/>
    <step time="92.00" loaded="654" inserted="281" running="232" waiting="28" ended="49" meanWaitingTime="1.64" meanTravelTime="34.04" duration="3"/>
    <step time="93.00" loaded="654" inserted="283" running="234" waiting="27" ended="49" meanWaitingTime="1.72" meanTravelTime="34.04" duration="3"/>
    <step time="94.00" loaded="654" inserted="285" running="236" waiting="28" ended="49" meanWaitingTime="1.71" meanTravelTime="34.04" duration="3"/>
    <step time="95.00" loaded="654" inserted="287" running="236" waiting="28" ended="51" meanWaitingTime="1.81" meanTravelTime="33.67" duration="2"/>
    <step time="96.00" loaded="654" inserted="292" running="240" waiting="30" ended="52" meanWaitingTime="1.79" meanTravelTime="34.87" duration="2"/>
    <step time="97.00" loaded="654" inserted="294" running="241" waiting="29" ended="53" meanWaitingTime="1.87" meanTravelTime="34.92" duration="5"/>
    <step time="98.00" loaded="654" inserted="294" running="241" waiting="31" ended="53" meanWaitingTime="1.87" meanTravelTime="34.92" duration="3"/>
    <step time="99.00" loaded="654" inserted="295" running="241" waiting="31" ended="54" meanWaitingTime="1.86" meanTravelTime="35.63" duration="3"/>
    <step time="100.00" loaded="654" inserted="301" running="246" waiting="29" ended="55" meanWaitingTime="2.19" meanTravelTime="36.40" duration="3"/>
    <step time="101.00" loaded="654" inserted="305" running="248" waiting="29" ended="57" meanWaitingTime="2.26" meanTravelTime="37.26" duration="2"/>
    <step time="102.00" loaded="654" inserted="306" running="246" waiting="29" ended="60" meanWaitingTime="2.35" meanTravelTime="38.43" duration="4"/>
    <step time="103.00" loaded="654" inserted="310" running="249" waiting="28" ended="61" meanWaitingTime="2.33" meanTravelTime="38.31" duration="3"/>
    <step time="104.00" loaded="654" inserted="313" running="250" waiting="30" ended="63" meanWaitingTime="2.40" meanTravelTime="38.65" duration="3"/>
    <step time="105.00" loaded="654" inserted="317" running="254" waiting="28" ended="63" meanWaitingTime="2.66" meanTravelTime="38.65" duration="3"/>
    <step time="106.00" loaded="654" inserted="320" running="256" waiting="25" ended="64" meanWaitingTime="2.81" meanTravelTime="38.91" duration="3"/>
    <step time="107.00" loaded="654" inserted="322" running="255" waiting="28" ended="67" meanWaitingTime="2.88" meanTravelTime="41.42" duration="3"/>
    <step time="108.00" loaded="654" inserted="332" running="264" waiting="27" ended="68" meanWaitingTime="2.91" meanTravelTime="41.59" duration="3"/>
    <step time="109.00" loaded="654" inserted="335" running="265" waiting="27" ended="70" meanWaitingTime="2.98" meanTravelTime="42.37" duration="4"/>
    <step time="110.00" loaded="654" inserted="338" running="265" waiting="25" ended="73" meanWaitingTime="3.04" meanTravelTime="44.26" duration="3"/>
    <step time="111.00" loaded="654" inserted="342" running="269" waiting="27" ended="73" meanWaitingTime="3.07" meanTravelTime="44.26" duration="3"/>
    <step time="112.00" loaded="654" inserted="346" running="271" waiting="26" ended="75" meanWaitingTime="3.10" meanTravelTime="45.03" duration="4"/>
    <step time="113.00" loaded="654" inserted="349" running="272" waiting="25" ended="77" meanWaitingTime="3.16" meanTravelTime="44.94" duration="5"/>
    <step time="114.00" loaded="654" inserted="352" running="275" waiting="24" ended="77" meanWaitingTime="3.28" meanTravelTime="44.94" duration="4"/>
    <step time="115.00" loaded="654" inserted="356" running="278" waiting="24" ended="78" meanWaitingTime="3.38" meanTravelTime="44.49" duration="3"/>
    <step time="116.00" loaded="654" inserted="360" running="282" waiting="23" ended="78" meanWaitingTime="3.39" meanTravelTime="44.49" duration="3"/>
    <step time="117.00" loaded="654" inserted="362" running="282" waiting="22" ended="80" meanWaitingTime="3.48" meanTravelTime="44.58" duration="5"/>
    <step time="118.00" loaded="654" inserted="365" running="283" waiting="23" ended="82" meanWaitingTime="3.46" meanTravelTime="44.98" duration="4"/>
    <step time="119.00" loaded="654" inserted="366" running="280" waiting="23" ended="86" meanWaitingTime="3.49" meanTravelTime="44.71" duration="3"/>
    <step time="120.00" loaded="654" inserted="370" running="284" waiting="22" ended="86" meanWaitingTime="3.46" meanTravelTime="44.71" duration="3"/>
    <step time="121.00" loaded="654" inserted="373" running="286" waiting="22" ended="87" meanWaitingTime="3.52" meanTravelTime="44.80" duration="4"/>
    <step time="122.00" loaded="654" inserted="376" running="286" waiting="23" ended="90" meanWaitingTime="3.53" meanTravelTime="44.82" duration="3"/>
    <step time="123.00" loaded="654" inserted="378" running="287" waiting="25" ended="91" meanWaitingTime="3.51" meanTravelTime="44.49" duration="3"/>
    <step time="124.00" loaded="654" inserted="380" running="285" waiting="25" ended="95" meanWaitingTime="3.50" meanTravelTime="46.15" duration="5"/>
    <step time="125.00" loaded="654" inserted="382" running="286" waiting="24" ended="96" meanWaitingTime="3.61" meanTravelTime="46.56" duration="3"/>
    <step time="126.00" loaded="654" inserted="392" running="295" waiting="24" ended="97" meanWaitingTime="3.63" meanTravelTime="46.93" duration="4"/>
    <step time="127.00" loaded="654" inserted="394" running="293" waiting="25" ended="101" meanWaitingTime="3.64" meanTravelTime="47.61" duration="4"/>
    <step time="128.00" loaded="654" inserted="396" running="294" waiting="25" ended="102" meanWaitingTime="3.62" meanTravelTime="47.72" duration="4"/>
    <step time="129.00" loaded="654" inserted="399" running="295" waiting="25" ended="104" meanWaitingTime="3.60" meanTravelTime="48.10" duration="3"/>
    <step time="130.00" loaded="654" inserted="404" running="297" waiting="25" ended="107" meanWaitingTime="3.60" meanTravelTime="48.92" duration="4"/>
    <step time="131.00" loaded="654" inserted="408" running="298" waiting="24" ended="110" meanWaitingTime="3.67" meanTravelTime="49.07" duration="7"/>
    <step time="132.00" loaded="654" inserted="410" running="295" waiting="24" ended="115" meanWaitingTime="3.74" meanTravelTime="49.43" duration="4"/>
    <step time="133.00" loaded="654" inserted="414" running="296" waiting="23" ended="118" meanWaitingTime="3.73" meanTravelTime="50.93" duration="3"/>
    <step time="134.00" loaded="654" inserted="416" running="296" waiting="24" ended="120" meanWaitingTime="3.72" meanTravelTime="50.94" duration="4"/>
    <step time="135.00" loaded="654" inserted="416" running="294" waiting="25" ended="122" meanWaitingTime="3.72" meanTravelTime="50.88" duration="3"/>
    <step time="136.00" loaded="654" inserted="420" running="295" waiting="24" ended="125" meanWaitingTime="3.70" meanTravelTime="51.01" duration="4"/>
    <step time="137.00" loaded="654" inserted="424" running="298" waiting="24" ended="126" meanWaitingTime="3.77" meanTravelTime="50.93" duration="4"/>
    <step time="138.00" loaded="654" inserted="426" running="298" waiting="24" ended="128" meanWaitingTime="3.84" meanTravelTime="51.30" duration="3"/>
    <step time="139.00" loaded="654" inserted="428" running="297" waiting="24" ended="131" meanWaitingTime="3.82" meanTravelTime="51.67" duration="4"/>
    <step time="140.00" loaded="654" inserted="430" running="297" waiting="25" ended="133" meanWaitingTime="3.82" meanTravelTime="51.18" duration="4"/>
    <step time="141.00" loaded="654" inserted="433" running="297" waiting="26" ended="136" meanWaitingTime="3.79" meanTravelTime="52.56" duration="4"/>
    <step time="142.00" loaded="654" inserted="434" running="295" waiting="26" ended="139" meanWaitingTime="3.78" meanTravelTime="52.95" duration="4"/>
    <step time="143.00" loaded="654" inserted="438" running="299" waiting="26" ended="139" meanWaitingTime="3.87" meanTravelTime="52.95" duration="3"/>
    <step time="144.00" loaded="654" inserted="451" running="306" waiting="25" ended="145" meanWaitingTime="3.85" meanTravelTime="53.52" duration="4"/>
    <step time="145.00" loaded="654" inserted="452" running="303" waiting="26" ended="149" meanWaitingTime="3.84" meanTravelTime="54.30" duration="4"/>
    <step time="146.00" loaded="654" inserted="454" running="301" waiting="25" ended="153" meanWaitingTime="3.83" meanTravelTime="54.26" duration="3"/>
    <step time="147.00" loaded="654" inserted="455" running="301" waiting="28" ended="154" meanWaitingTime="3.82" meanTravelTime="54.04" duration="4"/>
    <step time="148.00" loaded="654" inserted="460" running="304" waiting="26" ended="156" meanWaitingTime="3.88" meanTravelTime="54.26" duration="7"/>
    <step time="149.00" loaded="654" inserted="462" running="304" waiting="26" ended="158" meanWaitingTime="3.87" meanTravelTime="54.46" duration="6"/>
    <step time="150.00" loaded="654" inserted="462" running="301" waiting="28" ended="161" meanWaitingTime="3.87" meanTravelTime="54.60" duration="3"/>
    <step time="151.00" loaded="654" inserted="466" running="302" waiting="27" ended="164" meanWaitingTime="3.94" meanTravelTime="54.54" duration="4"/>
    <step time="152.00" loaded="654" inserted="469" running="304" waiting="29" ended="165" meanWaitingTime="3.91" meanTravelTime="54.34" duration="4"/>
    <step time="153.00" loaded="654" inserted="471" running="303" waiting="28" ended="168" meanWaitingTime="3.91" meanTravelTime="54.75" duration="3"/>
    <step time="154.00" loaded="654" inserted="471" running="303" waiting="29" ended="168" meanWaitingTime="3.91" meanTravelTime="54.75" duration="3"/>
    <step time="155.00" loaded="654" inserted="476" running="307" waiting="28" ended="169" meanWaitingTime="3.88" meanTravelTime="54.66" duration="5"/>
    <step time="156.00" loaded="654" inserted="478" running="309" waiting="30" ended="169" meanWaitingTime="3.86" meanTravelTime="54.66" duration="4"/>
    <step time="157.00" loaded="654" inserted="480" running="311" waiting="30" ended="169" meanWaitingTime="3.95" meanTravelTime="54.66" duration="4"/>
    <step time="158.00" loaded="654" inserted="481" running="312" waiting="30" ended="169" meanWaitingTime="3.95" meanTravelTime="54.66" duration="6"/>
    <step time="159.00" loaded="654" inserted="485" running="315" waiting="31" ended="170" meanWaitingTime="3.92" meanTravelTime="55.04" duration="4"/>
    <step time="160.00" loaded="654" inserted="490" running="319" waiting="30" ended="171" meanWaitingTime="3.98" meanTravelTime="55.30" duration="4"/>
    <step time="161.00" loaded="654" inserted="492" running="320" waiting="30" ended="172" meanWaitingTime="3.98" meanTravelTime="55.49" duration="3"/>
    <step time="162.00" loaded="654" inserted="498" running="325" waiting="32" ended="173" meanWaitingTime="3.93" meanTravelTime="55.92" duration="3"/>
    <step time="163.00" loaded="654" inserted="500" running="327" waiting="35" ended="173" meanWaitingTime="3.91" meanTravelTime="55.92" duration="4"/>
    <step time="164.00" loaded="654" inserted="503" running="330" waiting="35" ended="173" meanWaitingTime="3.89" meanTravelTime="55.92" duration="5"/>
    <step time="165.00" loaded="654" inserted="504" running="328" waiting="35" ended="176" meanWaitingTime="3.98" meanTravelTime="56.30" duration="5"/>
    <step time="166.00" loaded="654" inserted="506" running="330" waiting="35" ended="176" meanWaitingTime="3.98" meanTravelTime="56.30" duration="4"/>
    <step time="167.00" loaded="654" inserted="508" running="332" waiting="37" ended="176" meanWaitingTime="3.96" meanTravelTime="56.30" duration="4"/>
    <step time="168.00" loaded="654" inserted="512" running="336" waiting="37" ended="176" meanWaitingTime="3.94" meanTravelTime="56.30" duration="4"/>
    <step time="169.00" loaded="654" inserted="515" running="338" waiting="35" ended="177" meanWaitingTime="4.08" meanTravelTime="56.53" duration="4"/>
    <step time="170.00" loaded="654" inserted="517" running="339" waiting="37" ended="178" meanWaitingTime="4.16" meanTravelTime="56.48" duration="6"/>
    <step time="171.00" loaded="654" inserted="521" running="338" waiting="35" ended="183" meanWaitingTime="4.24" meanTravelTime="57.03" duration="3"/>
    <step time="172.00" loaded="654" inserted="524" running="340" waiting="36" ended="184" meanWaitingTime="4.22" meanTravelTime="57.03" duration="5"/>
    <step time="173.00" loaded="654" inserted="525" running="337" waiting="37" ended="188" meanWaitingTime="4.21" meanTravelTime="57.81" duration="7"/>
    <step time="174.00" loaded="654" inserted="527" running="338" waiting="39" ended="189" meanWaitingTime="4.20" meanTravelTime="58.01" duration="5"/>
    <step time="175.00" loaded="654" inserted="529" running="336" waiting="38" ended="193" meanWaitingTime="4.19" meanTravelTime="58.46" duration="4"/>
    <step time="176.00" loaded="654" inserted="531" running="336" waiting="40" ended="195" meanWaitingTime="4.17" meanTravelTime="58.30" duration="4"/>
    <step time="177.00" loaded="654" inserted="534" running="339" waiting="39" ended="195" meanWaitingTime="4.26" meanTravelTime="58.30" duration="5"/>
    <step time="178.00" loaded="654" inserted="538" running="341" waiting="38" ended="197" meanWaitingTime="4.37" meanTravelTime="58.65" duration="5"/>
    <step time="179.00" loaded="654" inserted="538" running="339" waiting="40" ended="199" meanWaitingTime="4.37" meanTravelTime="58.62" duration="4"/>
    <step time="180.00" loaded="654" inserted="545" running="345" waiting="41" ended="200" meanWaitingTime="4.32" meanTravelTime="58.56" duration="8"/>
    <step time="181.00" loaded="654" inserted="550" running="349" waiting="42" ended="201" meanWaitingTime="4.28" meanTravelTime="58.63" duration="4"/>
    <step time="182.00" loaded="654" inserted="553" running="349" waiting="43" ended="204" meanWaitingTime="4.25" meanTravelTime="58.92" duration="4"/>
    <step time="183.00" loaded="654" inserted="555" running="347" waiting="43" ended="208" meanWaitingTime="4.35" meanTravelTime="59.21" duration="8"/>
    <step time="184.00" loaded="654" inserted="556" running="346" waiting="44" ended="210" meanWaitingTime="4.35" meanTravelTime="59.47" duration="4"/>
    <step time="185.00" loaded="654" inserted="559" running="348" waiting="44" ended="211" meanWaitingTime="4.33" meanTravelTime="59.45" duration="5"/>
    <step time="186.00" loaded="654" inserted="561" running="349" waiting="45" ended="212" meanWaitingTime="4.43" meanTravelTime="59.56" duration="4"/>
    <step time="187.00" loaded="654" inserted="562" running="347" waiting="44" ended="215" meanWaitingTime="4.43" meanTravelTime="59.68" duration="4"/>