<?xml version="1.0" encoding="UTF-8"?>

<!-- generated on 3/31/2016 11:47:01 AM by SUMO gui Version 0.24.0
<?xml version="1.0" encoding="UTF-8"?>

<configuration xmlns:xsi="http://www.w3.org/2001/XMLSchema-instance" xsi:noNamespaceSchemaLocation="http://sumo.dlr.de/xsd/sumo-gui.exeConfiguration.xsd">

    <input>
        <net-file value="C:\Users\Xavier\Dropbox\Courses\Fall\ME%20199%20-%20Final%20Year%20Project\Sumo%20Projects\Huntington%20Colorado\Version%204\huntingtonColorado.net.xml"/>
        <route-files value="C:\Users\Xavier\Dropbox\Courses\Fall\ME%20199%20-%20Final%20Year%20Project\Sumo%20Projects\Huntington%20Colorado\Version%204\huntingtonColorado_exp.rou.xml"/>
        <additional-files value="C:\Users\Xavier\Dropbox\Courses\Fall\ME%20199%20-%20Final%20Year%20Project\Sumo%20Projects\Huntington%20Colorado\Version%204\huntingtonColoradoMyAdd.add.xml"/>
    </input>

    <output>
        <summary-output value="tripinfo_new_0.15.xml"/>
        <save-state.prefix value="C:\Users\Xavier\Dropbox\Courses\Fall\ME%20199%20-%20Final%20Year%20Project\Sumo%20Projects\Huntington%20Colorado\Version%204\state"/>
    </output>

    <time>
        <begin value="0"/>
    </time>

    <processing>
        <time-to-teleport value="-1"/>
    </processing>

    <emissions>
        <phemlight-path value="C:\Users\Xavier\Dropbox\Courses\Fall\ME%20199%20-%20Final%20Year%20Project\Sumo%20Projects\Huntington%20Colorado\Version%204\./PHEMlight/"/>
    </emissions>

    <traci_server>
        <remote-port value="8873"/>
    </traci_server>

</configuration>
-->

<summary xmlns:xsi="http://www.w3.org/2001/XMLSchema-instance" xsi:noNamespaceSchemaLocation="http://sumo.dlr.de/xsd/summary_file.xsd">
    <step time="0.00" loaded="21" inserted="20" running="20" waiting="0" ended="0" meanWaitingTime="0.00" meanTravelTime="-1.00" duration="0"/>
    <step time="1.00" loaded="21" inserted="20" running="20" waiting="1" ended="0" meanWaitingTime="0.00" meanTravelTime="-1.00" duration="0"/>
    <step time="2.00" loaded="654" inserted="21" running="21" waiting="0" ended="0" meanWaitingTime="0.05" meanTravelTime="-1.00" duration="0"/>
    <step time="3.00" loaded="654" inserted="25" running="25" waiting="1" ended="0" meanWaitingTime="0.04" meanTravelTime="-1.00" duration="103"/>
    <step time="4.00" loaded="654" inserted="27" running="27" waiting="1" ended="0" meanWaitingTime="0.04" meanTravelTime="-1.00" duration="1"/>
    <step time="5.00" loaded="654" inserted="28" running="28" waiting="1" ended="0" meanWaitingTime="0.11" meanTravelTime="-1.00" duration="1"/>
    <step time="6.00" loaded="654" inserted="30" running="30" waiting="1" ended="0" meanWaitingTime="0.13" meanTravelTime="-1.00" duration="1"/>
    <step time="7.00" loaded="654" inserted="35" running="35" waiting="1" ended="0" meanWaitingTime="0.14" meanTravelTime="-1.00" duration="1"/>
    <step time="8.00" loaded="654" inserted="39" running="39" waiting="1" ended="0" meanWaitingTime="0.15" meanTravelTime="-1.00" duration="1"/>
    <step time="9.00" loaded="654" inserted="39" running="38" waiting="2" ended="1" meanWaitingTime="0.15" meanTravelTime="9.00" duration="1"/>
    <step time="10.00" loaded="654" inserted="41" running="40" waiting="2" ended="1" meanWaitingTime="0.20" meanTravelTime="9.00" duration="4"/>
    <step time="11.00" loaded="654" inserted="45" running="44" waiting="1" ended="1" meanWaitingTime="0.22" meanTravelTime="9.00" duration="1"/>
    <step time="12.00" loaded="654" inserted="49" running="48" waiting="2" ended="1" meanWaitingTime="0.20" meanTravelTime="9.00" duration="0"/>
    <step time="13.00" loaded="654" inserted="50" running="49" waiting="2" ended="1" meanWaitingTime="0.26" meanTravelTime="9.00" duration="1"/>
    <step time="14.00" loaded="654" inserted="53" running="52" waiting="3" ended="1" meanWaitingTime="0.25" meanTravelTime="9.00" duration="0"/>
    <step time="15.00" loaded="654" inserted="54" running="52" waiting="3" ended="2" meanWaitingTime="0.24" meanTravelTime="12.00" duration="1"/>
    <step time="16.00" loaded="654" inserted="59" running="56" waiting="3" ended="3" meanWaitingTime="0.34" meanTravelTime="11.00" duration="3"/>
    <step time="17.00" loaded="654" inserted="60" running="57" waiting="4" ended="3" meanWaitingTime="0.33" meanTravelTime="11.00" duration="1"/>
    <step time="18.00" loaded="654" inserted="69" running="65" waiting="4" ended="4" meanWaitingTime="0.29" meanTravelTime="12.00" duration="2"/>
    <step time="19.00" loaded="654" inserted="72" running="68" waiting="5" ended="4" meanWaitingTime="0.35" meanTravelTime="12.00" duration="2"/>
    <step time="20.00" loaded="654" inserted="74" running="69" waiting="5" ended="5" meanWaitingTime="0.34" meanTravelTime="11.40" duration="4"/>
    <step time="21.00" loaded="654" inserted="77" running="71" waiting="5" ended="6" meanWaitingTime="0.39" meanTravelTime="11.83" duration="2"/>
    <step time="22.00" loaded="654" inserted="81" running="74" waiting="4" ended="7" meanWaitingTime="0.48" meanTravelTime="12.29" duration="2"/>
    <step time="23.00" loaded="654" inserted="82" running="75" waiting="5" ended="7" meanWaitingTime="0.48" meanTravelTime="12.29" duration="1"/>
    <step time="24.00" loaded="654" inserted="85" running="77" waiting="4" ended="8" meanWaitingTime="0.54" meanTravelTime="12.00" duration="1"/>
    <step time="25.00" loaded="654" inserted="88" running="80" waiting="5" ended="8" meanWaitingTime="0.52" meanTravelTime="12.00" duration="3"/>
    <step time="26.00" loaded="654" inserted="90" running="82" waiting="7" ended="8" meanWaitingTime="0.51" meanTravelTime="12.00" duration="1"/>
    <step time="27.00" loaded="654" inserted="93" running="83" waiting="5" ended="10" meanWaitingTime="0.63" meanTravelTime="12.80" duration="2"/>
    <step time="28.00" loaded="654" inserted="97" running="87" waiting="4" ended="10" meanWaitingTime="0.70" meanTravelTime="12.80" duration="2"/>
    <step time="29.00" loaded="654" inserted="100" running="90" waiting="5" ended="10" meanWaitingTime="0.68" meanTravelTime="12.80" duration="1"/>
    <step time="30.00" loaded="654" inserted="102" running="92" waiting="5" ended="10" meanWaitingTime="0.74" meanTravelTime="12.80" duration="2"/>
    <step time="31.00" loaded="654" inserted="104" running="94" waiting="4" ended="10" meanWaitingTime="0.74" meanTravelTime="12.80" duration="1"/>
    <step time="32.00" loaded="654" inserted="107" running="94" waiting="6" ended="13" meanWaitingTime="0.72" meanTravelTime="15.00" duration="2"/>
    <step time="33.00" loaded="654" inserted="111" running="98" waiting="5" ended="13" meanWaitingTime="0.77" meanTravelTime="15.00" duration="2"/>
    <step time="34.00" loaded="654" inserted="113" running="100" waiting="5" ended="13" meanWaitingTime="0.82" meanTravelTime="15.00" duration="2"/>
    <step time="35.00" loaded="654" inserted="115" running="102" waiting="6" ended="13" meanWaitingTime="0.83" meanTravelTime="15.00" duration="3"/>
    <step time="36.00" loaded="654" inserted="125" running="111" waiting="6" ended="14" meanWaitingTime="0.77" meanTravelTime="15.21" duration="2"/>
    <step time="37.00" loaded="654" inserted="129" running="114" waiting="6" ended="15" meanWaitingTime="0.81" meanTravelTime="15.40" duration="1"/>
    <step time="38.00" loaded="654" inserted="131" running="116" waiting="5" ended="15" meanWaitingTime="0.82" meanTravelTime="15.40" duration="2"/>
    <step time="39.00" loaded="654" inserted="133" running="117" waiting="6" ended="16" meanWaitingTime="0.88" meanTravelTime="15.69" duration="2"/>
    <step time="40.00" loaded="654" inserted="138" running="122" waiting="5" ended="16" meanWaitingTime="0.91" meanTravelTime="15.69" duration="1"/>
    <step time="41.00" loaded="654" inserted="138" running="122" waiting="6" ended="16" meanWaitingTime="0.91" meanTravelTime="15.69" duration="1"/>
    <step time="42.00" loaded="654" inserted="139" running="123" waiting="7" ended="16" meanWaitingTime="0.90" meanTravelTime="15.69" duration="2"/>
    <step time="43.00" loaded="654" inserted="142" running="126" waiting="8" ended="16" meanWaitingTime="0.88" meanTravelTime="15.69" duration="2"/>
    <step time="44.00" loaded="654" inserted="145" running="129" waiting="9" ended="16" meanWaitingTime="0.93" meanTravelTime="15.69" duration="1"/>
    <step time="45.00" loaded="654" inserted="148" running="131" waiting="8" ended="17" meanWaitingTime="1.02" meanTravelTime="16.71" duration="1"/>
    <step time="46.00" loaded="654" inserted="149" running="131" waiting="9" ended="18" meanWaitingTime="1.01" meanTravelTime="17.94" duration="4"/>
    <step time="47.00" loaded="654" inserted="152" running="134" waiting="7" ended="18" meanWaitingTime="1.05" meanTravelTime="17.94" duration="2"/>
    <step time="48.00" loaded="654" inserted="157" running="139" waiting="8" ended="18" meanWaitingTime="1.01" meanTravelTime="17.94" duration="2"/>
    <step time="49.00" loaded="654" inserted="158" running="139" waiting="8" ended="19" meanWaitingTime="1.08" meanTravelTime="19.58" duration="2"/>
    <step time="50.00" loaded="654" inserted="161" running="141" waiting="9" ended="20" meanWaitingTime="1.06" meanTravelTime="20.20" duration="2"/>
    <step time="51.00" loaded="654" inserted="164" running="144" waiting="9" ended="20" meanWaitingTime="1.04" meanTravelTime="20.20" duration="2"/>
    <step time="52.00" loaded="654" inserted="167" running="146" waiting="11" ended="21" meanWaitingTime="1.10" meanTravelTime="21.33" duration="2"/>
    <step time="53.00" loaded="654" inserted="168" running="146" waiting="11" ended="22" meanWaitingTime="1.17" meanTravelTime="22.77" duration="2"/>
    <step time="54.00" loaded="654" inserted="176" running="153" waiting="11" ended="23" meanWaitingTime="1.16" meanTravelTime="23.35" duration="2"/>
    <step time="55.00" loaded="654" inserted="178" running="155" waiting="14" ended="23" meanWaitingTime="1.15" meanTravelTime="23.35" duration="2"/>
    <step time="56.00" loaded="654" inserted="181" running="158" waiting="12" ended="23" meanWaitingTime="1.24" meanTravelTime="23.35" duration="3"/>
    <step time="57.00" loaded="654" inserted="183" running="160" waiting="12" ended="23" meanWaitingTime="1.30" meanTravelTime="23.35" duration="2"/>
    <step time="58.00" loaded="654" inserted="184" running="161" waiting="13" ended="23" meanWaitingTime="1.29" meanTravelTime="23.35" duration="3"/>
    <step time="59.00" loaded="654" inserted="188" running="165" waiting="14" ended="23" meanWaitingTime="1.30" meanTravelTime="23.35" duration="2"/>
    <step time="60.00" loaded="654" inserted="194" running="168" waiting="12" ended="26" meanWaitingTime="1.38" meanTravelTime="25.15" duration="2"/>
    <step time="61.00" loaded="654" inserted="194" running="166" waiting="13" ended="28" meanWaitingTime="1.38" meanTravelTime="26.04" duration="3"/>
    <step time="62.00" loaded="654" inserted="195" running="167" waiting="14" ended="28" meanWaitingTime="1.41" meanTravelTime="26.04" duration="2"/>
    <step time="63.00" loaded="654" inserted="199" running="171" waiting="14" ended="28" meanWaitingTime="1.45" meanTravelTime="26.04" duration="2"/>
    <step time="64.00" loaded="654" inserted="203" running="175" waiting="14" ended="28" meanWaitingTime="1.49" meanTravelTime="26.04" duration="4"/>
    <step time="65.00" loaded="654" inserted="205" running="176" waiting="14" ended="29" meanWaitingTime="1.54" meanTravelTime="26.72" duration="2"/>
    <step time="66.00" loaded="654" inserted="207" running="177" waiting="15" ended="30" meanWaitingTime="1.57" meanTravelTime="27.57" duration="2"/>
    <step time="67.00" loaded="654" inserted="209" running="178" waiting="15" ended="31" meanWaitingTime="1.55" meanTravelTime="27.26" duration="2"/>
    <step time="68.00" loaded="654" inserted="212" running="181" waiting="15" ended="31" meanWaitingTime="1.63" meanTravelTime="27.26" duration="2"/>
    <step time="69.00" loaded="654" inserted="214" running="183" waiting="14" ended="31" meanWaitingTime="1.68" meanTravelTime="27.26" duration="3"/>
    <step time="70.00" loaded="654" inserted="216" running="184" waiting="16" ended="32" meanWaitingTime="1.66" meanTravelTime="27.81" duration="2"/>
    <step time="71.00" loaded="654" inserted="219" running="186" waiting="18" ended="33" meanWaitingTime="1.64" meanTravelTime="28.45" duration="2"/>
    <step time="72.00" loaded="654" inserted="229" running="195" waiting="18" ended="34" meanWaitingTime="1.63" meanTravelTime="29.74" duration="8"/>
    <step time="73.00" loaded="654" inserted="230" running="196" waiting="18" ended="34" meanWaitingTime="1.66" meanTravelTime="29.74" duration="4"/>
    <step time="74.00" loaded="654" inserted="232" running="198" waiting="18" ended="34" meanWaitingTime="1.67" meanTravelTime="29.74" duration="2"/>
    <step time="75.00" loaded="654" inserted="235" running="201" waiting="19" ended="34" meanWaitingTime="1.72" meanTravelTime="29.74" duration="3"/>
    <step time="76.00" loaded="654" inserted="236" running="202" waiting="19" ended="34" meanWaitingTime="1.71" meanTravelTime="29.74" duration="2"/>
    <step time="77.00" loaded="654" inserted="238" running="204" waiting="20" ended="34" meanWaitingTime="1.70" meanTravelTime="29.74" duration="2"/>
    <step time="78.00" loaded="654" inserted="239" running="204" waiting="22" ended="35" meanWaitingTime="1.69" meanTravelTime="29.89" duration="2"/>
    <step time="79.00" loaded="654" inserted="243" running="207" waiting="21" ended="36" meanWaitingTime="1.77" meanTravelTime="30.28" duration="2"/>
    <step time="80.00" loaded="654" inserted="248" running="212" waiting="21" ended="36" meanWaitingTime="1.75" meanTravelTime="30.28" duration="2"/>
    <step time="81.00" loaded="654" inserted="249" running="213" waiting="23" ended="36" meanWaitingTime="1.75" meanTravelTime="30.28" duration="3"/>
    <step time="82.00" loaded="654" inserted="249" running="213" waiting="24" ended="36" meanWaitingTime="1.75" meanTravelTime="30.28" duration="2"/>
    <step time="83.00" loaded="654" inserted="251" running="215" waiting="23" ended="36" meanWaitingTime="1.82" meanTravelTime="30.28" duration="3"/>
    <step time="84.00" loaded="654" inserted="256" running="219" waiting="23" ended="37" meanWaitingTime="1.88" meanTravelTime="31.73" duration="2"/>
    <step time="85.00" loaded="654" inserted="257" running="218" waiting="25" ended="39" meanWaitingTime="1.88" meanTravelTime="33.38" duration="3"/>
    <step time="86.00" loaded="654" inserted="260" running="219" waiting="25" ended="41" meanWaitingTime="1.87" meanTravelTime="35.07" duration="2"/>
    <step time="87.00" loaded="654" inserted="262" running="221" waiting="24" ended="41" meanWaitingTime="1.94" meanTravelTime="35.07" duration="3"/>
    <step time="88.00" loaded="654" inserted="264" running="222" waiting="26" ended="42" meanWaitingTime="1.92" meanTravelTime="36.33" duration="3"/>
    <step time="89.00" loaded="654" inserted="265" running="223" waiting="28" ended="42" meanWaitingTime="1.92" meanTravelTime="36.33" duration="2"/>
    <step time="90.00" loaded="654" inserted="273" running="230" waiting="28" ended="43" meanWaitingTime="1.88" meanTravelTime="36.49" duration="3"/>
    <step time="91.00" loaded="654" inserted="275" running="231" waiting="30" ended="44" meanWaitingTime="1.87" meanTravelTime="36.91" duration="3"/>
    <step time="92.00" loaded="654" inserted="279" running="235" waiting="30" ended="44" meanWaitingTime="1.92" meanTravelTime="36.91" duration="3"/>
    <step time="93.00" loaded="654" inserted="280" running="235" waiting="30" ended="45" meanWaitingTime="2.00" meanTravelTime="37.20" duration="3"/>
    <step time="94.00" loaded="654" inserted="282" running="237" waiting="31" ended="45" meanWaitingTime="1.99" meanTravelTime="37.20" duration="3"/>
    <step time="95.00" loaded="654" inserted="283" running="238" waiting="32" ended="45" meanWaitingTime="1.98" meanTravelTime="37.20" duration="3"/>
    <step time="96.00" loaded="654" inserted="288" running="241" waiting="34" ended="47" meanWaitingTime="2.06" meanTravelTime="38.38" duration="3"/>
    <step time="97.00" loaded="654" inserted="291" running="243" waiting="32" ended="48" meanWaitingTime="2.12" meanTravelTime="38.48" duration="3"/>
    <step time="98.00" loaded="654" inserted="292" running="244" waiting="33" ended="48" meanWaitingTime="2.26" meanTravelTime="38.48" duration="2"/>
    <step time="99.00" loaded="654" inserted="294" running="244" waiting="32" ended="50" meanWaitingTime="2.40" meanTravelTime="40.10" duration="2"/>
    <step time="100.00" loaded="654" inserted="296" running="245" waiting="34" ended="51" meanWaitingTime="2.39" meanTravelTime="40.73" duration="3"/>
    <step time="101.00" loaded="654" inserted="300" running="249" waiting="34" ended="51" meanWaitingTime="2.49" meanTravelTime="40.73" duration="3"/>
    <step time="102.00" loaded="654" inserted="301" running="249" waiting="34" ended="52" meanWaitingTime="2.57" meanTravelTime="41.04" duration="3"/>
    <step time="103.00" loaded="654" inserted="306" running="253" waiting="32" ended="53" meanWaitingTime="2.66" meanTravelTime="41.72" duration="3"/>
    <step time="104.00" loaded="654" inserted="310" running="257" waiting="33" ended="53" meanWaitingTime="2.76" meanTravelTime="41.72" duration="3"/>
    <step time="105.00" loaded="654" inserted="311" running="257" waiting="34" ended="54" meanWaitingTime="2.75" meanTravelTime="42.74" duration="3"/>
    <step time="106.00" loaded="654" inserted="311" running="256" waiting="34" ended="55" meanWaitingTime="2.75" meanTravelTime="42.58" duration="3"/>
    <step time="107.00" loaded="654" inserted="314" running="255" waiting="36" ended="59" meanWaitingTime="2.86" meanTravelTime="44.93" duration="2"/>
    <step time="108.00" loaded="654" inserted="323" running="263" waiting="36" ended="60" meanWaitingTime="2.87" meanTravelTime="45.18" duration="3"/>
    <step time="109.00" loaded="654" inserted="324" running="263" waiting="38" ended="61" meanWaitingTime="2.86" meanTravelTime="45.05" duration="3"/>
    <step time="110.00" loaded="654" inserted="326" running="263" waiting="37" ended="63" meanWaitingTime="2.88" meanTravelTime="46.41" duration="3"/>
    <step time="111.00" loaded="654" inserted="330" running="265" waiting="39" ended="65" meanWaitingTime="2.94" meanTravelTime="47.17" duration="10"/>
    <step time="112.00" loaded="654" inserted="335" running="270" waiting="37" ended="65" meanWaitingTime="3.13" meanTravelTime="47.17" duration="4"/>
    <step time="113.00" loaded="654" inserted="340" running="273" waiting="34" ended="67" meanWaitingTime="3.39" meanTravelTime="48.52" duration="3"/>
    <step time="114.00" loaded="654" inserted="341" running="274" waiting="35" ended="67" meanWaitingTime="3.41" meanTravelTime="48.52" duration="5"/>
    <step time="115.00" loaded="654" inserted="344" running="275" waiting="36" ended="69" meanWaitingTime="3.38" meanTravelTime="47.81" duration="3"/>
    <step time="116.00" loaded="654" inserted="346" running="275" waiting="37" ended="71" meanWaitingTime="3.36" meanTravelTime="48.30" duration="4"/>
    <step time="117.00" loaded="654" inserted="349" running="277" waiting="35" ended="72" meanWaitingTime="3.61" meanTravelTime="48.75" duration="3"/>
    <step time="118.00" loaded="654" inserted="353" running="281" waiting="35" ended="72" meanWaitingTime="3.81" meanTravelTime="48.75" duration="4"/>
    <step time="119.00" loaded="654" inserted="356" running="281" waiting="33" ended="75" meanWaitingTime="3.88" meanTravelTime="49.36" duration="3"/>
    <step time="120.00" loaded="654" inserted="359" running="284" waiting="33" ended="75" meanWaitingTime="3.89" meanTravelTime="49.36" duration="4"/>
    <step time="121.00" loaded="654" inserted="362" running="285" waiting="33" ended="77" meanWaitingTime="3.98" meanTravelTime="49.18" duration="3"/>
    <step time="122.00" loaded="654" inserted="367" running="289" waiting="32" ended="78" meanWaitingTime="4.14" meanTravelTime="48.82" duration="3"/>
    <step time="123.00" loaded="654" inserted="371" running="290" waiting="32" ended="81" meanWaitingTime="4.12" meanTravelTime="49.62" duration="3"/>
    <step time="124.00" loaded="654" inserted="373" running="290" waiting="32" ended="83" meanWaitingTime="4.11" meanTravelTime="50.58" duration="3"/>
    <step time="125.00" loaded="654" inserted="373" running="288" waiting="33" ended="85" meanWaitingTime="4.11" meanTravelTime="51.60" duration="4"/>
    <step time="126.00" loaded="654" inserted="382" running="296" waiting="34" ended="86" meanWaitingTime="4.11" meanTravelTime="51.10" duration="4"/>
    <step time="127.00" loaded="654" inserted="384" running="296" waiting="35" ended="88" meanWaitingTime="4.18" meanTravelTime="52.61" duration="3"/>
    <step time="128.00" loaded="654" inserted="389" running="300" waiting="32" ended="89" meanWaitingTime="4.32" meanTravelTime="52.92" duration="4"/>
    <step time="129.00" loaded="654" inserted="392" running="299" waiting="32" ended="93" meanWaitingTime="4.31" meanTravelTime="53.68" duration="5"/>
    <step time="130.00" loaded="654" inserted="396" running="297" waiting="33" ended="99" meanWaitingTime="4.29" meanTravelTime="54.23" duration="4"/>
    <step time="131.00" loaded="654" inserted="398" running="299" waiting="34" ended="99" meanWaitingTime="4.36" meanTravelTime="54.23" duration="4"/>
    <step time="132.00" loaded="654" inserted="401" running="301" waiting="33" ended="100" meanWaitingTime="4.41" meanTravelTime="54.24" duration="3"/>
    <step time="133.00" loaded="654" inserted="403" running="299" waiting="34" ended="104" meanWaitingTime="4.39" meanTravelTime="54.51" duration="4"/>
    <step time="134.00" loaded="654" inserted="405" running="298" waiting="35" ended="107" meanWaitingTime="4.46" meanTravelTime="55.07" duration="4"/>
    <step time="135.00" loaded="654" inserted="407" running="299" waiting="34" ended="108" meanWaitingTime="4.61" meanTravelTime="55.12" duration="4"/>
    <step time="136.00" loaded="654" inserted="410" running="301" waiting="34" ended="109" meanWaitingTime="4.65" meanTravelTime="55.03" duration="4"/>
    <step time="137.00" loaded="654" inserted="413" running="301" waiting="35" ended="112" meanWaitingTime="4.74" meanTravelTime="54.62" duration="4"/>
    <step time="138.00" loaded="654" inserted="414" running="301" waiting="36" ended="113" meanWaitingTime="4.73" meanTravelTime="54.62" duration="3"/>
    <step time="139.00" loaded="654" inserted="417" running="303" waiting="35" ended="114" meanWaitingTime="4.79" meanTravelTime="54.91" duration="4"/>
    <step time="140.00" loaded="654" inserted="421" running="307" waiting="34" ended="114" meanWaitingTime="4.82" meanTravelTime="54.91" duration="3"/>
    <step time="141.00" loaded="654" inserted="424" running="306" waiting="35" ended="118" meanWaitingTime="4.79" meanTravelTime="56.08" duration="4"/>
    <step time="142.00" loaded="654" inserted="425" running="305" waiting="35" ended="120" meanWaitingTime="4.78" meanTravelTime="56.77" duration="3"/>
    <step time="143.00" loaded="654" inserted="429" running="306" waiting="35" ended="123" meanWaitingTime="4.93" meanTravelTime="56.71" duration="3"/>
    <step time="144.00" loaded="654" inserted="440" running="315" waiting="36" ended="125" meanWaitingTime="4.95" meanTravelTime="57.02" duration="3"/>
    <step time="145.00" loaded="654" inserted="441" running="313" waiting="37" ended="128" meanWaitingTime="4.94" meanTravelTime="57.81" duration="4"/>
    <step time="146.00" loaded="654" inserted="443" running="313" waiting="36" ended="130" meanWaitingTime="4.92" meanTravelTime="57.89" duration="4"/>
    <step time="147.00" loaded="654" inserted="445" running="313" waiting="38" ended="132" meanWaitingTime="4.90" meanTravelTime="57.94" duration="4"/>
    <step time="148.00" loaded="654" inserted="449" running="316" waiting="37" ended="133" meanWaitingTime="4.99" meanTravelTime="58.44" duration="4"/>
    <step time="149.00" loaded="654" inserted="451" running="317" waiting="37" ended="134" meanWaitingTime="5.02" meanTravelTime="58.22" duration="3"/>
    <step time="150.00" loaded="654" inserted="451" running="314" waiting="39" ended="137" meanWaitingTime="5.02" meanTravelTime="59.22" duration="4"/>
    <step time="151.00" loaded="654" inserted="454" running="315" waiting="39" ended="139" meanWaitingTime="5.08" meanTravelTime="59.01" duration="4"/>
    <step time="152.00" loaded="654" inserted="459" running="319" waiting="39" ended="140" meanWaitingTime="5.06" meanTravelTime="59.49" duration="4"/>
    <step time="153.00" loaded="654" inserted="460" running="320" waiting="39" ended="140" meanWaitingTime="5.08" meanTravelTime="59.49" duration="4"/>
    <step time="154.00" loaded="654" inserted="460" running="320" waiting="40" ended="140" meanWaitingTime="5.08" meanTravelTime="59.49" duration="3"/>
    <step time="155.00" loaded="654" inserted="466" running="323" waiting="38" ended="143" meanWaitingTime="5.17" meanTravelTime="59.66" duration="3"/>
    <step time="156.00" loaded="654" inserted="468" running="323" waiting="40" ended="145" meanWaitingTime="5.15" meanTravelTime="59.45" duration="4"/>
    <step time="157.00" loaded="654" inserted="469" running="322" waiting="41" ended="147" meanWaitingTime="5.14" meanTravelTime="60.16" duration="4"/>
    <step time="158.00" loaded="654" inserted="470" running="322" waiting="41" ended="148" meanWaitingTime="5.18" meanTravelTime="60.25" duration="4"/>
    <step time="159.00" loaded="654" inserted="473" running="323" waiting="43" ended="150" meanWaitingTime="5.15" meanTravelTime="60.90" duration="4"/>
    <step time="160.00" loaded="654" inserted="477" running="326" waiting="43" ended="151" meanWaitingTime="5.14" meanTravelTime="60.80" duration="3"/>
    <step time="161.00" loaded="654" inserted="478" running="327" waiting="44" ended="151" meanWaitingTime="5.13" meanTravelTime="60.80" duration="4"/>
    <step time="162.00" loaded="654" inserted="485" running="331" waiting="45" ended="154" meanWaitingTime="5.09" meanTravelTime="61.60" duration="4"/>
    <step time="163.00" loaded="654" inserted="487" running="332" waiting="48" ended="155" meanWaitingTime="5.18" meanTravelTime="61.97" duration="4"/>
    <step time="164.00" loaded="654" inserted="490" running="335" waiting="48" ended="155" meanWaitingTime="5.15" meanTravelTime="61.97" duration="4"/>
    <step time="165.00" loaded="654" inserted="491" running="336" waiting="48" ended="155" meanWaitingTime="5.14" meanTravelTime="61.97" duration="4"/>
    <step time="166.00" loaded="654" inserted="491" running="336" waiting="50" ended="155" meanWaitingTime="5.14" meanTravelTime="61.97" duration="4"/>
    <step time="167.00" loaded="654" inserted="494" running="339" waiting="51" ended="155" meanWaitingTime="5.11" meanTravelTime="61.97" duration="5"/>
    <step time="168.00" loaded="654" inserted="499" running="344" waiting="50" ended="155" meanWaitingTime="5.21" meanTravelTime="61.97" duration="4"/>
    <step time="169.00" loaded="654" inserted="501" running="344" waiting="49" ended="157" meanWaitingTime="5.24" meanTravelTime="62.15" duration="5"/>
    <step time="170.00" loaded="654" inserted="502" running="344" waiting="52" ended="158" meanWaitingTime="5.23" meanTravelTime="62.49" duration="4"/>
    <step time="171.00" loaded="654" inserted="505" running="346" waiting="51" ended="159" meanWaitingTime="5.23" meanTravelTime="62.84" duration="4"/>
    <step time="172.00" loaded="654" inserted="508" running="347" waiting="52" ended="161" meanWaitingTime="5.20" meanTravelTime="63.16" duration="4"/>
    <step time="173.00" loaded="654" inserted="510" running="348" waiting="52" ended="162" meanWaitingTime="5.30" meanTravelTime="63.62" duration="4"/>
    <step time="174.00" loaded="654" inserted="511" running="347" waiting="55" ended="164" meanWaitingTime="5.29" meanTravelTime="64.14" duration="4"/>
    <step time="175.00" loaded="654" inserted="512" running="347" waiting="55" ended="165" meanWaitingTime="5.28" meanTravelTime="64.27" duration="5"/>
    <step time="176.00" loaded="654" inserted="515" running="349" waiting="56" ended="166" meanWaitingTime="5.28" meanTravelTime="64.74" duration="4"/>
    <step time="177.00" loaded="654" inserted="517" running="350" waiting="56" ended="167" meanWaitingTime="5.29" meanTravelTime="64.95" duration="3"/>
    <step time="178.00" loaded="654" inserted="520" running="351" waiting="56" ended="169" meanWaitingTime="5.30" meanTravelTime="65.24" duration="4"/>
    <step time="179.00" loaded="654" inserted="522" running="353" waiting="56" ended="169" meanWaitingTime="5.41" meanTravelTime="65.24" duration="4"/>
    <step time="180.00" loaded="654" inserted="528" running="355" waiting="58" ended="173" meanWaitingTime="5.35" meanTravelTime="65.59" duration="4"/>
    <step time="181.00" loaded="654" inserted="533" running="358" waiting="59" ended="175" meanWaitingTime="5.30" meanTravelTime="65.61" duration="4"/>
    <step time="182.00" loaded="654" inserted="535" running="359" waiting="61" ended="176" meanWaitingTime="5.28" meanTravelTime="65.76" duration="5"/>
    <step time="183.00" loaded="654" inserted="536" running="358" waiting="62" ended="178" meanWaitingTime="5.39" meanTravelTime="65.75" duration="4"/>
    <step time="184.00" loaded="654" inserted="538" running="359" waiting="62" ended="179" meanWaitingTime="5.41" meanTravelTime="66.08" duration="4"/>
    <step time="185.00" loaded="654" inserted="542" running="362" waiting="61" ended="180" meanWaitingTime="5.42" meanTravelTime="66.22" duration="4"/>
    <step time="186.00" loaded="654" inserted="543" running="363" waiting="63" ended="180" meanWaitingTime="5.41" meanTravelTime="66.22" duration="5"/>
    <step time="187.00" loaded="654" inserted="544" running="364" waiting="62" ended="180" meanWaitingTime="5.53" meanTravelTime="66.22" duration="4"/>