<?xml version="1.0" encoding="UTF-8"?>

<!-- generated on 4/10/2016 3:42:38 PM by SUMO gui Version 0.24.0
<?xml version="1.0" encoding="UTF-8"?>

<configuration xmlns:xsi="http://www.w3.org/2001/XMLSchema-instance" xsi:noNamespaceSchemaLocation="http://sumo.dlr.de/xsd/sumo-gui.exeConfiguration.xsd">

    <input>
        <net-file value="C:\Users\Xavier\Dropbox\Courses\Fall\ME%20199%20-%20Final%20Year%20Project\Sumo%20Projects\Huntington%20Colorado\Version%204\huntingtonColorado.net.xml"/>
        <route-files value="C:\Users\Xavier\Dropbox\Courses\Fall\ME%20199%20-%20Final%20Year%20Project\Sumo%20Projects\Huntington%20Colorado\Version%204\huntingtonColorado.rou.xml"/>
        <additional-files value="C:\Users\Xavier\Dropbox\Courses\Fall\ME%20199%20-%20Final%20Year%20Project\Sumo%20Projects\Huntington%20Colorado\Version%204\huntingtonColoradoMyAdd.add.xml"/>
    </input>

    <output>
        <tripinfo-output value="tripinfo.xml"/>
        <save-state.prefix value="C:\Users\Xavier\Dropbox\Courses\Fall\ME%20199%20-%20Final%20Year%20Project\Sumo%20Projects\Huntington%20Colorado\Version%204\state"/>
    </output>

    <time>
        <begin value="0"/>
        <end value="20000"/>
    </time>

    <processing>
        <time-to-teleport value="-1"/>
    </processing>

    <emissions>
        <phemlight-path value="C:\Users\Xavier\Dropbox\Courses\Fall\ME%20199%20-%20Final%20Year%20Project\Sumo%20Projects\Huntington%20Colorado\Version%204\./PHEMlight/"/>
    </emissions>

    <traci_server>
        <remote-port value="8873"/>
    </traci_server>

</configuration>
-->

<tripinfos xmlns:xsi="http://www.w3.org/2001/XMLSchema-instance" xsi:noNamespaceSchemaLocation="http://sumo.dlr.de/xsd/tripinfo_file.xsd">
    <tripinfo id="type7.0" depart="0.00" departLane="44to43_0" departPos="5.10" departSpeed="0.00" departDelay="0.00" arrival="9.00" arrivalLane="43to45_0" arrivalPos="23.53" arrivalSpeed="13.29" duration="9.00" routeLength="73.70" waitSteps="0" timeLoss="3.19" rerouteNo="0" devices="tripinfo_type7.0" vType="DEFAULT_VEHTYPE" vaporized=""/>
    <tripinfo id="type10.0" depart="0.00" departLane="48to47_0" departPos="5.10" departSpeed="0.00" departDelay="0.00" arrival="14.00" arrivalLane="47to49_0" arrivalPos="66.13" arrivalSpeed="13.74" duration="14.00" routeLength="150.12" waitSteps="0" timeLoss="3.10" rerouteNo="0" devices="tripinfo_type10.0" vType="DEFAULT_VEHTYPE" vaporized=""/>
    <tripinfo id="type7.2" depart="7.00" departLane="44to43_0" departPos="5.10" departSpeed="0.00" departDelay="-0.43" arrival="16.00" arrivalLane="43to45_0" arrivalPos="23.53" arrivalSpeed="13.77" duration="9.00" routeLength="73.70" waitSteps="0" timeLoss="3.23" rerouteNo="0" devices="tripinfo_type7.2" vType="DEFAULT_VEHTYPE" vaporized=""/>
    <tripinfo id="type9.1" depart="3.00" departLane="49to47_0" departPos="5.10" departSpeed="0.00" departDelay="-0.71" arrival="17.00" arrivalLane="47to48_0" arrivalPos="61.85" arrivalSpeed="12.98" duration="14.00" routeLength="150.12" waitSteps="0" timeLoss="3.21" rerouteNo="0" devices="tripinfo_type9.1" vType="DEFAULT_VEHTYPE" vaporized=""/>
    <tripinfo id="type7.3" depart="11.00" departLane="44to43_0" departPos="5.10" departSpeed="0.00" departDelay="-0.15" arrival="20.00" arrivalLane="43to45_0" arrivalPos="23.53" arrivalSpeed="13.40" duration="9.00" routeLength="73.70" waitSteps="0" timeLoss="3.22" rerouteNo="0" devices="tripinfo_type7.3" vType="DEFAULT_VEHTYPE" vaporized=""/>
    <tripinfo id="type9.2" depart="7.00" departLane="49to47_0" departPos="5.10" departSpeed="0.00" departDelay="-0.43" arrival="21.00" arrivalLane="47to48_0" arrivalPos="61.85" arrivalSpeed="13.80" duration="14.00" routeLength="150.12" waitSteps="0" timeLoss="3.24" rerouteNo="0" devices="tripinfo_type9.2" vType="DEFAULT_VEHTYPE" vaporized=""/>
    <tripinfo id="type10.2" depart="7.00" departLane="48to47_0" departPos="5.10" departSpeed="0.00" departDelay="-0.95" arrival="22.00" arrivalLane="47to49_0" arrivalPos="66.13" arrivalSpeed="12.89" duration="15.00" routeLength="150.12" waitSteps="0" timeLoss="3.77" rerouteNo="0" devices="tripinfo_type10.2" vType="DEFAULT_VEHTYPE" vaporized=""/>
    <tripinfo id="type7.4" depart="14.00" departLane="44to43_0" departPos="5.10" departSpeed="0.00" departDelay="-0.86" arrival="23.00" arrivalLane="43to45_0" arrivalPos="23.53" arrivalSpeed="13.43" duration="9.00" routeLength="73.70" waitSteps="0" timeLoss="3.43" rerouteNo="0" devices="tripinfo_type7.4" vType="DEFAULT_VEHTYPE" vaporized=""/>
    <tripinfo id="type8.0" depart="0.00" departLane="45to43_0" departPos="5.10" departSpeed="0.00" departDelay="0.00" arrival="24.00" arrivalLane="40to41_0" arrivalPos="23.24" arrivalSpeed="11.54" duration="24.00" routeLength="207.65" waitSteps="0" timeLoss="9.14" rerouteNo="0" devices="tripinfo_type8.0" vType="DEFAULT_VEHTYPE" vaporized=""/>
    <tripinfo id="type10.3" depart="11.00" departLane="48to47_0" departPos="5.10" departSpeed="0.00" departDelay="-0.93" arrival="25.00" arrivalLane="47to49_0" arrivalPos="66.13" arrivalSpeed="13.61" duration="14.00" routeLength="150.12" waitSteps="0" timeLoss="3.11" rerouteNo="0" devices="tripinfo_type10.3" vType="DEFAULT_VEHTYPE" vaporized=""/>
    <tripinfo id="type9.3" depart="11.00" departLane="49to47_0" departPos="5.10" departSpeed="0.00" departDelay="-0.15" arrival="26.00" arrivalLane="47to48_0" arrivalPos="61.85" arrivalSpeed="13.18" duration="15.00" routeLength="150.12" waitSteps="0" timeLoss="3.93" rerouteNo="0" devices="tripinfo_type9.3" vType="DEFAULT_VEHTYPE" vaporized=""/>
    <tripinfo id="type9.4" depart="14.00" departLane="49to47_0" departPos="5.10" departSpeed="0.00" departDelay="-0.86" arrival="29.00" arrivalLane="47to48_0" arrivalPos="61.85" arrivalSpeed="13.73" duration="15.00" routeLength="150.12" waitSteps="0" timeLoss="3.51" rerouteNo="0" devices="tripinfo_type9.4" vType="DEFAULT_VEHTYPE" vaporized=""/>
    <tripinfo id="type10.4" depart="15.00" departLane="48to47_0" departPos="5.10" departSpeed="0.00" departDelay="-0.91" arrival="30.00" arrivalLane="47to49_0" arrivalPos="66.13" arrivalSpeed="13.72" duration="15.00" routeLength="150.12" waitSteps="0" timeLoss="3.50" rerouteNo="0" devices="tripinfo_type10.4" vType="DEFAULT_VEHTYPE" vaporized=""/>
    <tripinfo id="type0.8" depart="14.00" departLane="2to14_0" departPos="5.10" departSpeed="0.00" departDelay="-0.37" arrival="32.00" arrivalLane="17to3_0" arrivalPos="79.91" arrivalSpeed="13.27" duration="18.00" routeLength="190.45" waitSteps="0" timeLoss="3.64" rerouteNo="0" devices="tripinfo_type0.8" vType="DEFAULT_VEHTYPE" vaporized=""/>
    <tripinfo id="type9.5" depart="18.00" departLane="49to47_0" departPos="5.10" departSpeed="0.00" departDelay="-0.57" arrival="32.00" arrivalLane="47to48_0" arrivalPos="61.85" arrivalSpeed="12.70" duration="14.00" routeLength="150.12" waitSteps="0" timeLoss="3.23" rerouteNo="0" devices="tripinfo_type9.5" vType="DEFAULT_VEHTYPE" vaporized=""/>
    <tripinfo id="type8.1" depart="12.00" departLane="45to43_0" departPos="5.10" departSpeed="0.00" departDelay="-0.12" arrival="33.00" arrivalLane="40to41_0" arrivalPos="23.24" arrivalSpeed="13.38" duration="21.00" routeLength="207.65" waitSteps="0" timeLoss="5.54" rerouteNo="0" devices="tripinfo_type8.1" vType="DEFAULT_VEHTYPE" vaporized=""/>
    <tripinfo id="type10.5" depart="19.00" departLane="48to47_0" departPos="5.10" departSpeed="0.00" departDelay="-0.89" arrival="34.00" arrivalLane="47to49_0" arrivalPos="66.13" arrivalSpeed="12.80" duration="15.00" routeLength="150.12" waitSteps="0" timeLoss="3.43" rerouteNo="0" devices="tripinfo_type10.5" vType="DEFAULT_VEHTYPE" vaporized=""/>
    <tripinfo id="type13.1" depart="7.00" departLane="61to60_0" departPos="5.10" departSpeed="0.00" departDelay="-0.24" arrival="34.00" arrivalLane="64to66_0" arrivalPos="23.81" arrivalSpeed="12.82" duration="27.00" routeLength="289.79" waitSteps="0" timeLoss="5.10" rerouteNo="0" devices="tripinfo_type13.1" vType="DEFAULT_VEHTYPE" vaporized=""/>
    <tripinfo id="type12.0" depart="0.00" departLane="53to52_0" departPos="5.10" departSpeed="0.00" departDelay="0.00" arrival="49.00" arrivalLane="52to54_0" arrivalPos="39.70" arrivalSpeed="13.47" duration="49.00" routeLength="116.16" waitSteps="32" timeLoss="40.28" rerouteNo="0" devices="tripinfo_type12.0" vType="DEFAULT_VEHTYPE" vaporized=""/>
    <tripinfo id="type11.1" depart="18.00" departLane="54to52_0" departPos="5.10" departSpeed="0.00" departDelay="0.00" arrival="51.00" arrivalLane="52to53_0" arrivalPos="58.66" arrivalSpeed="13.67" duration="33.00" routeLength="116.10" waitSteps="15" timeLoss="23.96" rerouteNo="0" devices="tripinfo_type11.1" vType="DEFAULT_VEHTYPE" vaporized=""/>
    <tripinfo id="type12.1" depart="18.00" departLane="53to52_0" departPos="5.10" departSpeed="0.00" departDelay="0.00" arrival="51.00" arrivalLane="52to54_0" arrivalPos="39.70" arrivalSpeed="13.73" duration="33.00" routeLength="116.16" waitSteps="15" timeLoss="24.41" rerouteNo="0" devices="tripinfo_type12.1" vType="DEFAULT_VEHTYPE" vaporized=""/>
</tripinfos>
