<?xml version="1.0" encoding="UTF-8"?>

<!-- generated on 3/14/2016 4:11:37 PM by SUMO gui Version 0.24.0
<?xml version="1.0" encoding="UTF-8"?>

<configuration xmlns:xsi="http://www.w3.org/2001/XMLSchema-instance" xsi:noNamespaceSchemaLocation="http://sumo.dlr.de/xsd/sumo-gui.exeConfiguration.xsd">

    <input>
        <net-file value="huntingtonColorado.net.xml"/>
        <route-files value="huntingtonColorado.rou.xml"/>
        <additional-files value="huntingtonColoradoMyAdd.add.xml"/>
    </input>

    <time>
        <begin value="0"/>
        <end value="10000"/>
    </time>

    <processing>
        <time-to-teleport value="-1"/>
    </processing>

</configuration>
-->

<meandata xmlns:xsi="http://www.w3.org/2001/XMLSchema-instance" xsi:noNamespaceSchemaLocation="http://sumo.dlr.de/xsd/meandata_file.xsd">
    <interval begin="0.00" end="1000.00" id="id_test1">
        <edge id="10to9" sampledSeconds="30.62" traveltime="0.98" density="2.36" occupancy="0.59" waitingTime="0.00" speed="13.29" departed="0" arrived="0" entered="23" left="22" laneChangedFrom="0" laneChangedTo="0"/>
        <edge id="11to10" sampledSeconds="34.11" traveltime="1.11" density="2.29" occupancy="0.57" waitingTime="0.00" speed="13.40" departed="0" arrived="0" entered="23" left="23" laneChangedFrom="0" laneChangedTo="0"/>
        <edge id="12to11" sampledSeconds="41.72" traveltime="1.44" density="2.17" occupancy="0.54" waitingTime="0.00" speed="13.35" departed="0" arrived="0" entered="23" left="23" laneChangedFrom="0" laneChangedTo="0"/>
        <edge id="13to12" sampledSeconds="38.77" traveltime="1.31" density="2.20" occupancy="0.55" waitingTime="0.00" speed="13.44" departed="0" arrived="0" entered="23" left="23" laneChangedFrom="0" laneChangedTo="0"/>
        <edge id="14to1" sampledSeconds="2808.63" traveltime="2.28" density="1114.54" occupancy="111.45" waitingTime="2344.00" speed="1.10" departed="0" arrived="0" entered="413" left="412" laneChangedFrom="17" laneChangedTo="17"/>
        <edge id="14to2" sampledSeconds="581.17" traveltime="6.50" density="6.77" occupancy="1.69" waitingTime="0.00" speed="13.20" departed="0" arrived="85" entered="86" left="0" laneChangedFrom="0" laneChangedTo="0"/>
        <edge id="15to1" sampledSeconds="527.82" traveltime="2.32" density="133.62" occupancy="16.70" waitingTime="393.00" speed="1.70" departed="0" arrived="0" entered="101" left="100" laneChangedFrom="0" laneChangedTo="0"/>
        <edge id="15to6" sampledSeconds="2530.19" traveltime="6.16" density="31.26" occupancy="7.82" waitingTime="0.00" speed="13.14" departed="0" arrived="0" entered="390" left="384" laneChangedFrom="20" laneChangedTo="20"/>
        <edge id="16to1" sampledSeconds="4531.38" traveltime="27.62" density="414.96" occupancy="69.16" waitingTime="3953.00" speed="0.40" departed="0" arrived="0" entered="116" left="110" laneChangedFrom="16" laneChangedTo="16"/>
        <edge id="16to4" sampledSeconds="2289.40" traveltime="9.25" density="18.80" occupancy="3.13" waitingTime="0.00" speed="13.17" departed="0" arrived="0" entered="240" left="236" laneChangedFrom="87" laneChangedTo="87"/>
        <edge id="17to1" sampledSeconds="4607.46" traveltime="14.62" density="368.01" occupancy="46.00" waitingTime="3743.00" speed="0.86" departed="0" arrived="0" entered="228" left="222" laneChangedFrom="4" laneChangedTo="4"/>
        <edge id="17to3" sampledSeconds="794.64" traveltime="6.08" density="9.94" occupancy="2.49" waitingTime="0.00" speed="13.14" departed="0" arrived="124" entered="124" left="0" laneChangedFrom="0" laneChangedTo="0"/>
        <edge id="18to19" sampledSeconds="11549.75" traveltime="35.91" density="143.05" occupancy="35.76" waitingTime="8199.00" speed="2.25" departed="0" arrived="0" entered="314" left="292" laneChangedFrom="10" laneChangedTo="10"/>
        <edge id="18to7" sampledSeconds="10336.47" traveltime="97.91" density="7.96" occupancy="1.99" waitingTime="0.00" speed="13.27" departed="0" arrived="0" entered="113" left="102" laneChangedFrom="24" laneChangedTo="24"/>
        <edge id="19to18" sampledSeconds="755.47" traveltime="6.30" density="9.36" occupancy="2.34" waitingTime="0.00" speed="12.82" departed="0" arrived="0" entered="113" left="113" laneChangedFrom="20" laneChangedTo="20"/>
        <edge id="19to20" sampledSeconds="269.88" traveltime="5.53" density="3.82" occupancy="1.91" waitingTime="0.00" speed="12.77" departed="0" arrived="46" entered="46" left="0" laneChangedFrom="0" laneChangedTo="0"/>
        <edge id="19to21" sampledSeconds="4617.15" traveltime="14.95" density="66.87" occupancy="16.72" waitingTime="2127.00" speed="4.62" departed="0" arrived="0" entered="288" left="288" laneChangedFrom="15" laneChangedTo="15"/>
        <edge id="1to14" sampledSeconds="57.37" traveltime="0.22" density="22.76" occupancy="5.69" waitingTime="0.00" speed="11.27" departed="0" arrived="0" entered="86" left="86" laneChangedFrom="0" laneChangedTo="0"/>
        <edge id="1to15" sampledSeconds="301.08" traveltime="0.35" density="71.18" occupancy="17.79" waitingTime="0.00" speed="11.96" departed="0" arrived="0" entered="391" left="390" laneChangedFrom="0" laneChangedTo="0"/>
        <edge id="1to16" sampledSeconds="366.68" traveltime="1.05" density="33.58" occupancy="5.60" waitingTime="0.00" speed="10.43" departed="0" arrived="0" entered="241" left="240" laneChangedFrom="7" laneChangedTo="7"/>
        <edge id="1to17" sampledSeconds="201.31" traveltime="1.16" density="15.95" occupancy="3.99" waitingTime="0.00" speed="10.85" departed="0" arrived="0" entered="124" left="124" laneChangedFrom="0" laneChangedTo="0"/>
        <edge id="20to19" sampledSeconds="2536.12" traveltime="45.58" density="35.91" occupancy="17.95" waitingTime="1806.00" speed="1.55" departed="56" arrived="0" entered="0" left="54" laneChangedFrom="0" laneChangedTo="0"/>
        <edge id="21to19" sampledSeconds="2385.42" traveltime="22.06" density="34.55" occupancy="5.76" waitingTime="1449.00" speed="3.13" departed="0" arrived="0" entered="101" left="101" laneChangedFrom="13" laneChangedTo="13"/>
        <edge id="21to22" sampledSeconds="287.06" traveltime="5.69" density="3.94" occupancy="1.97" waitingTime="0.00" speed="12.81" departed="0" arrived="48" entered="48" left="0" laneChangedFrom="0" laneChangedTo="0"/>
        <edge id="21to23" sampledSeconds="3725.91" traveltime="13.12" density="21.57" occupancy="5.39" waitingTime="0.00" speed="13.17" departed="0" arrived="0" entered="276" left="276" laneChangedFrom="28" laneChangedTo="28"/>
        <edge id="22to21" sampledSeconds="3197.57" traveltime="58.16" density="43.88" occupancy="21.94" waitingTime="2442.00" speed="1.25" departed="56" arrived="0" entered="0" left="52" laneChangedFrom="0" laneChangedTo="0"/>
        <edge id="23to21" sampledSeconds="2861.33" traveltime="32.35" density="16.56" occupancy="2.76" waitingTime="1442.00" speed="5.34" departed="0" arrived="0" entered="89" left="85" laneChangedFrom="14" laneChangedTo="14"/>
        <edge id="23to24" sampledSeconds="4313.24" traveltime="15.25" density="21.42" occupancy="5.35" waitingTime="0.00" speed="13.21" departed="0" arrived="0" entered="276" left="276" laneChangedFrom="41" laneChangedTo="41"/>
        <edge id="24to23" sampledSeconds="1397.98" traveltime="15.10" density="6.94" occupancy="1.74" waitingTime="0.00" speed="13.34" departed="0" arrived="0" entered="91" left="89" laneChangedFrom="18" laneChangedTo="18"/>
        <edge id="24to25" sampledSeconds="2008.93" traveltime="6.92" density="22.73" occupancy="5.68" waitingTime="0.00" speed="12.77" departed="0" arrived="0" entered="276" left="274" laneChangedFrom="25" laneChangedTo="25"/>
        <edge id="25to24" sampledSeconds="636.70" traveltime="6.62" density="7.20" occupancy="1.80" waitingTime="0.00" speed="13.35" departed="0" arrived="0" entered="91" left="91" laneChangedFrom="1" laneChangedTo="1"/>
        <edge id="25to26" sampledSeconds="1734.37" traveltime="5.98" density="23.28" occupancy="5.82" waitingTime="0.00" speed="12.47" departed="0" arrived="0" entered="274" left="270" laneChangedFrom="29" laneChangedTo="29"/>
        <edge id="26to25" sampledSeconds="544.72" traveltime="5.58" density="7.31" occupancy="1.83" waitingTime="0.00" speed="13.35" departed="0" arrived="0" entered="92" left="91" laneChangedFrom="4" laneChangedTo="4"/>
        <edge id="26to27" sampledSeconds="1821.51" traveltime="6.34" density="28.60" occupancy="7.15" waitingTime="83.00" speed="10.04" departed="0" arrived="0" entered="270" left="264" laneChangedFrom="17" laneChangedTo="17"/>
        <edge id="27to26" sampledSeconds="473.90" traveltime="4.78" density="7.44" occupancy="1.86" waitingTime="0.00" speed="13.33" departed="0" arrived="0" entered="92" left="92" laneChangedFrom="4" laneChangedTo="4"/>
        <edge id="27to28" sampledSeconds="1907.72" traveltime="6.56" density="44.41" occupancy="11.10" waitingTime="554.00" speed="6.55" departed="0" arrived="0" entered="264" left="259" laneChangedFrom="15" laneChangedTo="15"/>
        <edge id="28to27" sampledSeconds="329.47" traveltime="3.21" density="7.67" occupancy="1.92" waitingTime="0.00" speed="13.39" departed="0" arrived="0" entered="92" left="92" laneChangedFrom="3" laneChangedTo="3"/>
        <edge id="28to39" sampledSeconds="2082.66" traveltime="7.15" density="56.73" occupancy="14.18" waitingTime="832.00" speed="5.13" departed="0" arrived="0" entered="258" left="254" laneChangedFrom="7" laneChangedTo="7"/>
        <edge id="29to30" sampledSeconds="7357.18" traveltime="29.72" density="215.12" occupancy="35.85" waitingTime="6004.00" speed="1.15" departed="0" arrived="0" entered="224" left="209" laneChangedFrom="44" laneChangedTo="44"/>
        <edge id="29to39" sampledSeconds="1086.55" traveltime="11.33" density="7.19" occupancy="1.80" waitingTime="0.00" speed="13.33" departed="0" arrived="0" entered="93" left="92" laneChangedFrom="5" laneChangedTo="5"/>
        <edge id="2to14" sampledSeconds="15404.21" traveltime="36.92" density="179.54" occupancy="17.95" waitingTime="8754.00" speed="2.32" departed="427" arrived="0" entered="0" left="413" laneChangedFrom="617" laneChangedTo="617"/>
        <edge id="30to29" sampledSeconds="283.70" traveltime="2.66" density="8.32" occupancy="2.08" waitingTime="0.00" speed="12.81" departed="0" arrived="0" entered="93" left="93" laneChangedFrom="0" laneChangedTo="0"/>
        <edge id="30to31" sampledSeconds="263.29" traveltime="1.52" density="13.40" occupancy="3.35" waitingTime="0.00" speed="12.92" departed="0" arrived="0" entered="138" left="138" laneChangedFrom="0" laneChangedTo="0"/>
        <edge id="30to32" sampledSeconds="86.51" traveltime="0.71" density="10.50" occupancy="2.62" waitingTime="0.00" speed="11.63" departed="0" arrived="0" entered="76" left="76" laneChangedFrom="0" laneChangedTo="0"/>
        <edge id="31to30" sampledSeconds="771.58" traveltime="16.36" density="39.71" occupancy="6.62" waitingTime="621.00" speed="1.19" departed="0" arrived="0" entered="38" left="36" laneChangedFrom="2" laneChangedTo="2"/>
        <edge id="31to34" sampledSeconds="715.97" traveltime="4.82" density="11.18" occupancy="2.80" waitingTime="0.00" speed="13.30" departed="0" arrived="0" entered="138" left="138" laneChangedFrom="23" laneChangedTo="23"/>
        <edge id="32to30" sampledSeconds="650.57" traveltime="6.53" density="78.95" occupancy="19.74" waitingTime="521.00" speed="1.26" departed="0" arrived="0" entered="62" left="62" laneChangedFrom="0" laneChangedTo="0"/>
        <edge id="32to33" sampledSeconds="177.14" traveltime="2.00" density="6.77" occupancy="1.69" waitingTime="0.00" speed="13.09" departed="0" arrived="76" entered="76" left="0" laneChangedFrom="0" laneChangedTo="0"/>
        <edge id="33to32" sampledSeconds="1030.72" traveltime="16.54" density="39.42" occupancy="9.85" waitingTime="641.00" speed="1.58" departed="63" arrived="0" entered="0" left="62" laneChangedFrom="2" laneChangedTo="2"/>
        <edge id="34to31" sampledSeconds="261.99" traveltime="6.40" density="4.10" occupancy="0.68" waitingTime="49.00" speed="9.97" departed="0" arrived="0" entered="38" left="38" laneChangedFrom="7" laneChangedTo="7"/>
        <edge id="34to35" sampledSeconds="5181.14" traveltime="37.12" density="11.92" occupancy="2.98" waitingTime="5.00" speed="11.70" departed="0" arrived="0" entered="138" left="138" laneChangedFrom="104" laneChangedTo="104"/>
        <edge id="35to34" sampledSeconds="1278.33" traveltime="32.49" density="2.94" occupancy="0.74" waitingTime="0.00" speed="13.37" departed="0" arrived="0" entered="39" left="38" laneChangedFrom="34" laneChangedTo="34"/>
        <edge id="35to36" sampledSeconds="914.88" traveltime="6.19" density="13.06" occupancy="3.27" waitingTime="0.00" speed="11.32" departed="0" arrived="0" entered="138" left="138" laneChangedFrom="15" laneChangedTo="15"/>
        <edge id="36to35" sampledSeconds="218.68" traveltime="5.23" density="3.13" occupancy="0.78" waitingTime="0.00" speed="13.37" departed="0" arrived="0" entered="39" left="39" laneChangedFrom="0" laneChangedTo="0"/>
        <edge id="36to37" sampledSeconds="796.88" traveltime="5.35" density="12.69" occupancy="3.17" waitingTime="20.00" speed="11.74" departed="0" arrived="0" entered="138" left="138" laneChangedFrom="4" laneChangedTo="4"/>
        <edge id="37to36" sampledSeconds="198.19" traveltime="4.71" density="3.16" occupancy="0.79" waitingTime="0.00" speed="13.34" departed="0" arrived="0" entered="39" left="39" laneChangedFrom="1" laneChangedTo="1"/>
        <edge id="37to38" sampledSeconds="926.42" traveltime="6.06" density="20.08" occupancy="5.02" waitingTime="206.00" speed="7.62" departed="0" arrived="0" entered="138" left="138" laneChangedFrom="1" laneChangedTo="1"/>
        <edge id="38to37" sampledSeconds="149.60" traveltime="3.46" density="3.24" occupancy="0.81" waitingTime="0.00" speed="13.33" departed="0" arrived="0" entered="39" left="39" laneChangedFrom="0" laneChangedTo="0"/>
        <edge id="38to40" sampledSeconds="2449.58" traveltime="16.58" density="38.04" occupancy="6.34" waitingTime="1382.00" speed="3.88" departed="0" arrived="0" entered="138" left="133" laneChangedFrom="43" laneChangedTo="43"/>
        <edge id="39to28" sampledSeconds="287.00" traveltime="2.75" density="7.82" occupancy="1.95" waitingTime="0.00" speed="13.37" departed="0" arrived="0" entered="92" left="92" laneChangedFrom="6" laneChangedTo="6"/>
        <edge id="39to29" sampledSeconds="13145.22" traveltime="52.62" density="86.95" occupancy="14.49" waitingTime="8040.00" speed="2.87" departed="0" arrived="0" entered="254" left="224" laneChangedFrom="52" laneChangedTo="52"/>
        <edge id="3to17" sampledSeconds="9254.75" traveltime="39.54" density="115.96" occupancy="14.49" waitingTime="5737.66" speed="2.02" departed="238" arrived="0" entered="0" left="228" laneChangedFrom="289" laneChangedTo="289"/>
        <edge id="40to38" sampledSeconds="204.80" traveltime="4.87" density="3.18" occupancy="0.80" waitingTime="0.00" speed="13.21" departed="0" arrived="0" entered="39" left="39" laneChangedFrom="2" laneChangedTo="2"/>
        <edge id="40to41" sampledSeconds="276.08" traveltime="1.92" density="11.88" occupancy="1.98" waitingTime="0.00" speed="12.13" departed="0" arrived="122" entered="122" left="0" laneChangedFrom="0" laneChangedTo="0"/>
        <edge id="40to42" sampledSeconds="5805.91" traveltime="44.96" density="50.76" occupancy="12.69" waitingTime="3897.00" speed="2.54" departed="0" arrived="0" entered="127" left="117" laneChangedFrom="16" laneChangedTo="16"/>
        <edge id="42to40" sampledSeconds="4464.16" traveltime="27.59" density="39.03" occupancy="4.88" waitingTime="2353.00" speed="4.14" departed="0" arrived="0" entered="155" left="155" laneChangedFrom="107" laneChangedTo="107"/>
        <edge id="42to43" sampledSeconds="1487.36" traveltime="8.96" density="126.58" occupancy="21.10" waitingTime="1188.00" speed="1.31" departed="0" arrived="0" entered="117" left="116" laneChangedFrom="0" laneChangedTo="0"/>
        <edge id="43to42" sampledSeconds="237.24" traveltime="1.08" density="20.19" occupancy="3.37" waitingTime="0.00" speed="10.86" departed="0" arrived="0" entered="155" left="155" laneChangedFrom="25" laneChangedTo="25"/>
        <edge id="43to45" sampledSeconds="444.56" traveltime="1.86" density="18.89" occupancy="4.72" waitingTime="0.00" speed="12.64" departed="0" arrived="202" entered="202" left="0" laneChangedFrom="0" laneChangedTo="0"/>
        <edge id="43to46" sampledSeconds="6538.40" traveltime="48.03" density="22.11" occupancy="5.53" waitingTime="2195.00" speed="6.16" departed="0" arrived="0" entered="142" left="119" laneChangedFrom="51" laneChangedTo="51"/>
        <edge id="44to43" sampledSeconds="9497.24" traveltime="59.74" density="362.35" occupancy="36.24" waitingTime="8182.00" speed="0.44" departed="164" arrived="0" entered="0" left="153" laneChangedFrom="342" laneChangedTo="342"/>
        <edge id="45to43" sampledSeconds="2739.35" traveltime="33.41" density="116.42" occupancy="29.10" waitingTime="2188.00" speed="0.70" departed="83" arrived="0" entered="0" left="81" laneChangedFrom="62" laneChangedTo="62"/>
        <edge id="46to43" sampledSeconds="11803.56" traveltime="67.88" density="39.91" occupancy="9.98" waitingTime="6283.00" speed="4.36" departed="0" arrived="0" entered="176" left="152" laneChangedFrom="87" laneChangedTo="87"/>
        <edge id="46to47" sampledSeconds="2843.12" traveltime="18.54" density="191.07" occupancy="23.88" waitingTime="2306.00" speed="0.80" departed="0" arrived="0" entered="117" left="115" laneChangedFrom="4" laneChangedTo="4"/>
        <edge id="47to46" sampledSeconds="273.16" traveltime="1.16" density="18.36" occupancy="4.59" waitingTime="0.00" speed="12.81" departed="0" arrived="0" entered="176" left="176" laneChangedFrom="5" laneChangedTo="5"/>
        <edge id="47to48" sampledSeconds="920.45" traveltime="4.69" density="14.88" occupancy="3.72" waitingTime="0.00" speed="13.19" departed="0" arrived="184" entered="185" left="0" laneChangedFrom="1" laneChangedTo="1"/>
        <edge id="47to49" sampledSeconds="1225.70" traveltime="5.02" density="18.53" occupancy="4.63" waitingTime="0.00" speed="13.17" departed="0" arrived="228" entered="230" left="0" laneChangedFrom="1" laneChangedTo="1"/>
        <edge id="47to50" sampledSeconds="327.02" traveltime="1.49" density="17.82" occupancy="4.46" waitingTime="0.00" speed="12.35" departed="0" arrived="0" entered="173" left="173" laneChangedFrom="13" laneChangedTo="13"/>
        <edge id="48to47" sampledSeconds="12785.01" traveltime="51.61" density="206.71" occupancy="20.67" waitingTime="9548.00" speed="1.20" departed="251" arrived="0" entered="0" left="243" laneChangedFrom="413" laneChangedTo="413"/>
        <edge id="49to47" sampledSeconds="11201.82" traveltime="41.99" density="169.39" occupancy="16.94" waitingTime="7774.00" speed="1.57" departed="270" arrived="0" entered="0" left="262" laneChangedFrom="404" laneChangedTo="404"/>
        <edge id="4to13" sampledSeconds="46.42" traveltime="1.64" density="2.11" occupancy="0.53" waitingTime="0.00" speed="13.39" departed="0" arrived="0" entered="23" left="23" laneChangedFrom="0" laneChangedTo="0"/>
        <edge id="4to16" sampledSeconds="25044.53" traveltime="174.74" density="205.65" occupancy="34.28" waitingTime="20519.00" speed="0.70" departed="0" arrived="0" entered="155" left="116" laneChangedFrom="22" laneChangedTo="22"/>
        <edge id="4to5" sampledSeconds="1604.81" traveltime="7.32" density="16.44" occupancy="2.74" waitingTime="0.00" speed="13.34" departed="0" arrived="209" entered="212" left="0" laneChangedFrom="25" laneChangedTo="25"/>
        <edge id="50to47" sampledSeconds="4415.90" traveltime="22.84" density="240.65" occupancy="40.11" waitingTime="3565.00" speed="0.80" departed="0" arrived="0" entered="155" left="149" laneChangedFrom="13" laneChangedTo="13"/>
        <edge id="50to51" sampledSeconds="3011.81" traveltime="17.10" density="14.33" occupancy="3.58" waitingTime="30.00" speed="12.29" departed="0" arrived="0" entered="173" left="172" laneChangedFrom="66" laneChangedTo="66"/>
        <edge id="51to50" sampledSeconds="9288.34" traveltime="52.06" density="44.20" occupancy="11.05" waitingTime="4751.00" speed="4.04" departed="0" arrived="0" entered="180" left="156" laneChangedFrom="31" laneChangedTo="31"/>
        <edge id="51to52" sampledSeconds="2264.42" traveltime="11.20" density="80.04" occupancy="13.34" waitingTime="1427.00" speed="2.53" departed="0" arrived="0" entered="172" left="172" laneChangedFrom="28" laneChangedTo="28"/>
        <edge id="52to51" sampledSeconds="478.42" traveltime="2.26" density="16.91" occupancy="4.23" waitingTime="0.00" speed="12.52" departed="0" arrived="0" entered="180" left="180" laneChangedFrom="2" laneChangedTo="2"/>
        <edge id="52to53" sampledSeconds="288.85" traveltime="4.55" density="4.92" occupancy="2.46" waitingTime="0.00" speed="12.88" departed="0" arrived="59" entered="59" left="0" laneChangedFrom="0" laneChangedTo="0"/>
        <edge id="52to54" sampledSeconds="184.30" traveltime="3.11" density="4.64" occupancy="2.32" waitingTime="0.00" speed="12.78" departed="0" arrived="54" entered="54" left="0" laneChangedFrom="0" laneChangedTo="0"/>
        <edge id="52to55" sampledSeconds="551.78" traveltime="2.97" density="19.08" occupancy="4.77" waitingTime="0.00" speed="9.73" departed="0" arrived="0" entered="159" left="159" laneChangedFrom="16" laneChangedTo="16"/>
        <edge id="53to52" sampledSeconds="2709.40" traveltime="50.16" density="46.19" occupancy="11.55" waitingTime="2043.00" speed="1.17" departed="56" arrived="0" entered="0" left="50" laneChangedFrom="4" laneChangedTo="4"/>
        <edge id="54to52" sampledSeconds="2688.18" traveltime="51.48" density="67.71" occupancy="16.93" waitingTime="2160.00" speed="0.77" departed="55" arrived="0" entered="0" left="50" laneChangedFrom="6" laneChangedTo="6"/>
        <edge id="55to52" sampledSeconds="1698.90" traveltime="7.96" density="58.74" occupancy="9.79" waitingTime="998.00" speed="3.63" departed="0" arrived="0" entered="184" left="180" laneChangedFrom="10" laneChangedTo="10"/>
        <edge id="55to56" sampledSeconds="3008.08" traveltime="18.51" density="13.33" occupancy="3.33" waitingTime="0.00" speed="12.19" departed="0" arrived="0" entered="159" left="159" laneChangedFrom="36" laneChangedTo="36"/>
        <edge id="56to55" sampledSeconds="3305.44" traveltime="17.49" density="14.65" occupancy="3.66" waitingTime="38.00" speed="12.91" departed="0" arrived="0" entered="185" left="185" laneChangedFrom="30" laneChangedTo="30"/>
        <edge id="56to57" sampledSeconds="1470.01" traveltime="8.25" density="39.05" occupancy="4.88" waitingTime="859.00" speed="4.56" departed="0" arrived="0" entered="159" left="155" laneChangedFrom="19" laneChangedTo="19"/>
        <edge id="57to56" sampledSeconds="623.91" traveltime="2.95" density="16.58" occupancy="4.14" waitingTime="0.00" speed="12.76" departed="0" arrived="0" entered="187" left="186" laneChangedFrom="5" laneChangedTo="5"/>
        <edge id="57to58" sampledSeconds="286.85" traveltime="3.29" density="6.74" occupancy="1.68" waitingTime="0.00" speed="12.94" departed="0" arrived="0" entered="78" left="78" laneChangedFrom="0" laneChangedTo="0"/>
        <edge id="57to60" sampledSeconds="411.69" traveltime="2.85" density="11.29" occupancy="2.82" waitingTime="0.00" speed="12.79" departed="0" arrived="0" entered="127" left="127" laneChangedFrom="0" laneChangedTo="0"/>
        <edge id="57to62" sampledSeconds="1128.35" traveltime="4.77" density="18.05" occupancy="4.51" waitingTime="0.00" speed="13.09" departed="0" arrived="0" entered="220" left="218" laneChangedFrom="19" laneChangedTo="19"/>
        <edge id="58to57" sampledSeconds="5971.75" traveltime="48.49" density="140.25" occupancy="23.37" waitingTime="4913.00" speed="0.88" departed="0" arrived="0" entered="116" left="103" laneChangedFrom="41" laneChangedTo="41"/>
        <edge id="58to59" sampledSeconds="337.73" traveltime="4.05" density="6.26" occupancy="1.56" waitingTime="0.00" speed="13.34" departed="0" arrived="78" entered="78" left="0" laneChangedFrom="0" laneChangedTo="0"/>
        <edge id="59to58" sampledSeconds="822.40" traveltime="7.11" density="15.24" occupancy="2.54" waitingTime="0.00" speed="7.59" departed="116" arrived="0" entered="0" left="116" laneChangedFrom="36" laneChangedTo="36"/>
        <edge id="5to4" sampledSeconds="16164.93" traveltime="99.27" density="165.56" occupancy="27.59" waitingTime="12830.00" speed="0.98" departed="171" arrived="0" entered="0" left="157" laneChangedFrom="154" laneChangedTo="154"/>
        <edge id="60to57" sampledSeconds="4502.27" traveltime="30.04" density="123.45" occupancy="20.58" waitingTime="3536.00" speed="1.21" departed="0" arrived="0" entered="136" left="127" laneChangedFrom="24" laneChangedTo="24"/>
        <edge id="60to61" sampledSeconds="460.11" traveltime="3.30" density="10.47" occupancy="2.62" waitingTime="0.00" speed="13.31" departed="0" arrived="127" entered="127" left="0" laneChangedFrom="0" laneChangedTo="0"/>
        <edge id="61to60" sampledSeconds="1498.49" traveltime="10.91" density="34.10" occupancy="8.53" waitingTime="475.00" speed="4.03" departed="139" arrived="0" entered="0" left="137" laneChangedFrom="21" laneChangedTo="21"/>
        <edge id="62to57" sampledSeconds="7197.86" traveltime="28.99" density="115.17" occupancy="19.19" waitingTime="4935.00" speed="2.16" departed="0" arrived="0" entered="232" left="227" laneChangedFrom="13" laneChangedTo="13"/>
        <edge id="62to63" sampledSeconds="1587.86" traveltime="6.95" density="18.56" occupancy="4.64" waitingTime="38.00" speed="12.32" departed="0" arrived="0" entered="218" left="214" laneChangedFrom="70" laneChangedTo="70"/>
        <edge id="63to62" sampledSeconds="1922.86" traveltime="7.72" density="22.47" occupancy="5.62" waitingTime="167.00" speed="11.09" departed="0" arrived="0" entered="237" left="234" laneChangedFrom="36" laneChangedTo="36"/>
        <edge id="63to64" sampledSeconds="1349.82" traveltime="5.33" density="49.25" occupancy="8.21" waitingTime="535.00" speed="5.14" departed="0" arrived="0" entered="214" left="214" laneChangedFrom="19" laneChangedTo="19"/>
        <edge id="64to63" sampledSeconds="587.26" traveltime="2.09" density="21.43" occupancy="5.36" waitingTime="0.00" speed="13.13" departed="0" arrived="0" entered="239" left="237" laneChangedFrom="6" laneChangedTo="6"/>
        <edge id="64to65" sampledSeconds="313.74" traveltime="5.41" density="4.58" occupancy="2.29" waitingTime="0.00" speed="12.68" departed="0" arrived="55" entered="55" left="0" laneChangedFrom="0" laneChangedTo="0"/>
        <edge id="64to66" sampledSeconds="38.35" traveltime="1.90" density="1.61" occupancy="0.81" waitingTime="0.00" speed="12.50" departed="0" arrived="17" entered="17" left="0" laneChangedFrom="0" laneChangedTo="0"/>
        <edge id="64to67" sampledSeconds="539.13" traveltime="2.38" density="17.98" occupancy="4.50" waitingTime="0.00" speed="12.62" departed="0" arrived="0" entered="195" left="194" laneChangedFrom="7" laneChangedTo="7"/>
        <edge id="65to64" sampledSeconds="0.00" departed="0" arrived="0" entered="0" left="0" laneChangedFrom="0" laneChangedTo="0"/>
        <edge id="66to64" sampledSeconds="1817.04" traveltime="33.02" density="76.31" occupancy="38.16" waitingTime="1465.00" speed="0.72" departed="56" arrived="0" entered="0" left="54" laneChangedFrom="0" laneChangedTo="0"/>
        <edge id="67to64" sampledSeconds="704.01" traveltime="2.52" density="23.48" occupancy="3.91" waitingTime="63.00" speed="11.91" departed="0" arrived="0" entered="240" left="239" laneChangedFrom="14" laneChangedTo="14"/>
        <edge id="67to68" sampledSeconds="2270.81" traveltime="11.41" density="17.49" occupancy="4.37" waitingTime="236.00" speed="11.37" departed="0" arrived="0" entered="194" left="189" laneChangedFrom="24" laneChangedTo="24"/>
        <edge id="68to67" sampledSeconds="2455.93" traveltime="9.77" density="18.92" occupancy="4.73" waitingTime="0.00" speed="13.28" departed="0" arrived="0" entered="244" left="240" laneChangedFrom="16" laneChangedTo="16"/>
        <edge id="68to69" sampledSeconds="2415.37" traveltime="10.93" density="83.20" occupancy="13.87" waitingTime="1620.00" speed="2.66" departed="0" arrived="0" entered="189" left="188" laneChangedFrom="18" laneChangedTo="18"/>
        <edge id="69to68" sampledSeconds="649.88" traveltime="2.27" density="22.39" occupancy="5.60" waitingTime="0.00" speed="12.82" departed="0" arrived="0" entered="245" left="244" laneChangedFrom="5" laneChangedTo="5"/>
        <edge id="69to70" sampledSeconds="279.30" traveltime="3.52" density="6.05" occupancy="3.02" waitingTime="0.00" speed="13.14" departed="0" arrived="73" entered="73" left="0" laneChangedFrom="0" laneChangedTo="0"/>
        <edge id="69to71" sampledSeconds="250.05" traveltime="3.48" density="5.50" occupancy="2.75" waitingTime="0.00" speed="13.07" departed="0" arrived="65" entered="65" left="0" laneChangedFrom="0" laneChangedTo="0"/>
        <edge id="69to72" sampledSeconds="1004.07" traveltime="5.34" density="14.56" occupancy="3.64" waitingTime="0.00" speed="12.93" departed="0" arrived="0" entered="177" left="174" laneChangedFrom="6" laneChangedTo="6"/>
        <edge id="6to15" sampledSeconds="1501.19" traveltime="13.87" density="18.61" occupancy="2.33" waitingTime="650.00" speed="5.81" departed="0" arrived="0" entered="102" left="101" laneChangedFrom="7" laneChangedTo="7"/>
        <edge id="6to7" sampledSeconds="2786.92" traveltime="6.93" density="30.22" occupancy="7.56" waitingTime="0.00" speed="13.30" departed="0" arrived="0" entered="384" left="379" laneChangedFrom="15" laneChangedTo="15"/>
        <edge id="70to69" sampledSeconds="2137.77" traveltime="38.87" density="46.27" occupancy="11.57" waitingTime="1498.00" speed="1.19" departed="56" arrived="0" entered="0" left="53" laneChangedFrom="0" laneChangedTo="0"/>