<?xml version="1.0" encoding="UTF-8"?>

<!-- generated on 4/25/2016 6:28:59 PM by SUMO gui Version 0.24.0
<?xml version="1.0" encoding="UTF-8"?>

<configuration xmlns:xsi="http://www.w3.org/2001/XMLSchema-instance" xsi:noNamespaceSchemaLocation="http://sumo.dlr.de/xsd/sumo-gui.exeConfiguration.xsd">

    <input>
        <net-file value="C:\Users\Xavier\Dropbox\Courses\Fall\ME%20199%20-%20Final%20Year%20Project\Sumo%20Projects\Huntington%20Colorado\Version%205\huntingtonColorado.net.xml"/>
        <route-files value="C:\Users\Xavier\Dropbox\Courses\Fall\ME%20199%20-%20Final%20Year%20Project\Sumo%20Projects\Huntington%20Colorado\Version%205\huntingtonColorado_exp.rou.xml"/>
        <additional-files value="C:\Users\Xavier\Dropbox\Courses\Fall\ME%20199%20-%20Final%20Year%20Project\Sumo%20Projects\Huntington%20Colorado\Version%205\huntingtonColoradoMyAdd.add.xml"/>
    </input>

    <output>
        <tripinfo-output value="tripinfo.xml"/>
        <save-state.prefix value="C:\Users\Xavier\Dropbox\Courses\Fall\ME%20199%20-%20Final%20Year%20Project\Sumo%20Projects\Huntington%20Colorado\Version%205\state"/>
    </output>

    <time>
        <begin value="0"/>
    </time>

    <processing>
        <time-to-teleport value="-1"/>
    </processing>

    <emissions>
        <phemlight-path value="C:\Users\Xavier\Dropbox\Courses\Fall\ME%20199%20-%20Final%20Year%20Project\Sumo%20Projects\Huntington%20Colorado\Version%205\./PHEMlight/"/>
    </emissions>

    <traci_server>
        <remote-port value="8873"/>
    </traci_server>

</configuration>
-->

<meandata xmlns:xsi="http://www.w3.org/2001/XMLSchema-instance" xsi:noNamespaceSchemaLocation="http://sumo.dlr.de/xsd/meandata_file.xsd">
    <interval begin="0.00" end="384.00" id="id_test1">
        <edge id="10to9" sampledSeconds="5.42" traveltime="0.98" density="1.09" occupancy="0.27" waitingTime="0.00" speed="13.29" departed="0" arrived="0" entered="4" left="4" laneChangedFrom="0" laneChangedTo="0"/>
        <edge id="11to10" sampledSeconds="5.95" traveltime="1.11" density="1.04" occupancy="0.26" waitingTime="0.00" speed="13.36" departed="0" arrived="0" entered="4" left="4" laneChangedFrom="0" laneChangedTo="0"/>
        <edge id="12to11" sampledSeconds="7.17" traveltime="1.42" density="0.97" occupancy="0.24" waitingTime="0.00" speed="13.51" departed="0" arrived="0" entered="4" left="4" laneChangedFrom="0" laneChangedTo="0"/>
        <edge id="13to12" sampledSeconds="6.74" traveltime="1.31" density="0.99" occupancy="0.25" waitingTime="0.00" speed="13.44" departed="0" arrived="0" entered="4" left="4" laneChangedFrom="0" laneChangedTo="0"/>
        <edge id="14to1" sampledSeconds="1103.34" traveltime="3.08" density="1140.19" occupancy="114.02" waitingTime="949.00" speed="0.82" departed="0" arrived="0" entered="122" left="120" laneChangedFrom="4" laneChangedTo="4"/>
        <edge id="14to2" sampledSeconds="357.22" traveltime="16.95" density="4.14" occupancy="1.03" waitingTime="0.00" speed="13.26" departed="0" arrived="20" entered="24" left="0" laneChangedFrom="4" laneChangedTo="4"/>
        <edge id="15to1" sampledSeconds="162.39" traveltime="4.22" density="107.06" occupancy="13.38" waitingTime="133.00" speed="0.94" departed="0" arrived="0" entered="17" left="17" laneChangedFrom="0" laneChangedTo="0"/>
        <edge id="15to6" sampledSeconds="774.80" traveltime="6.44" density="24.93" occupancy="6.23" waitingTime="0.00" speed="12.56" departed="0" arrived="0" entered="116" left="111" laneChangedFrom="4" laneChangedTo="4"/>
        <edge id="16to1" sampledSeconds="1328.14" traveltime="21.93" density="316.73" occupancy="52.79" waitingTime="1135.00" speed="0.50" departed="0" arrived="0" entered="44" left="40" laneChangedFrom="0" laneChangedTo="0"/>
        <edge id="16to4" sampledSeconds="644.93" traveltime="9.30" density="13.79" occupancy="2.30" waitingTime="0.00" speed="13.09" departed="0" arrived="0" entered="68" left="66" laneChangedFrom="37" laneChangedTo="37"/>
        <edge id="17to1" sampledSeconds="1666.99" traveltime="17.32" density="346.74" occupancy="43.34" waitingTime="1326.00" speed="0.72" departed="0" arrived="0" entered="71" left="67" laneChangedFrom="1" laneChangedTo="1"/>
        <edge id="17to3" sampledSeconds="501.33" traveltime="14.80" density="6.68" occupancy="1.67" waitingTime="0.00" speed="13.20" departed="0" arrived="33" entered="33" left="0" laneChangedFrom="22" laneChangedTo="22"/>
        <edge id="18to19" sampledSeconds="1511.82" traveltime="21.56" density="48.76" occupancy="12.19" waitingTime="546.00" speed="3.74" departed="0" arrived="0" entered="72" left="57" laneChangedFrom="10" laneChangedTo="10"/>
        <edge id="18to7" sampledSeconds="2505.06" traveltime="98.24" density="5.02" occupancy="1.26" waitingTime="0.00" speed="13.22" departed="0" arrived="0" entered="29" left="23" laneChangedFrom="3" laneChangedTo="3"/>
        <edge id="19to18" sampledSeconds="199.06" traveltime="6.38" density="6.42" occupancy="1.61" waitingTime="0.00" speed="12.65" departed="0" arrived="0" entered="31" left="29" laneChangedFrom="9" laneChangedTo="9"/>
        <edge id="19to20" sampledSeconds="124.80" traveltime="8.56" density="2.95" occupancy="1.48" waitingTime="0.00" speed="12.85" departed="0" arrived="14" entered="15" left="0" laneChangedFrom="0" laneChangedTo="0"/>
        <edge id="19to21" sampledSeconds="742.16" traveltime="12.82" density="27.99" occupancy="7.00" waitingTime="232.00" speed="5.39" departed="0" arrived="0" entered="54" left="54" laneChangedFrom="5" laneChangedTo="5"/>
        <edge id="1to14" sampledSeconds="17.11" traveltime="0.24" density="17.68" occupancy="4.42" waitingTime="0.00" speed="10.55" departed="0" arrived="0" entered="24" left="24" laneChangedFrom="0" laneChangedTo="0"/>
        <edge id="1to15" sampledSeconds="96.48" traveltime="0.38" density="59.40" occupancy="14.85" waitingTime="0.00" speed="11.10" departed="0" arrived="0" entered="116" left="116" laneChangedFrom="0" laneChangedTo="0"/>
        <edge id="1to16" sampledSeconds="111.99" traveltime="1.13" density="26.71" occupancy="4.45" waitingTime="0.00" speed="9.66" departed="0" arrived="0" entered="69" left="68" laneChangedFrom="2" laneChangedTo="2"/>
        <edge id="1to17" sampledSeconds="54.61" traveltime="1.19" density="11.27" occupancy="2.82" waitingTime="0.00" speed="10.65" departed="0" arrived="0" entered="33" left="33" laneChangedFrom="0" laneChangedTo="0"/>
        <edge id="20to19" sampledSeconds="924.41" traveltime="54.43" density="21.87" occupancy="10.94" waitingTime="621.00" speed="2.02" departed="17" arrived="0" entered="0" left="17" laneChangedFrom="0" laneChangedTo="0"/>
        <edge id="21to19" sampledSeconds="672.36" traveltime="19.65" density="25.36" occupancy="4.23" waitingTime="329.00" speed="3.51" departed="0" arrived="0" entered="34" left="28" laneChangedFrom="7" laneChangedTo="7"/>
        <edge id="21to22" sampledSeconds="119.35" traveltime="9.59" density="2.56" occupancy="1.28" waitingTime="0.00" speed="12.66" departed="0" arrived="12" entered="12" left="0" laneChangedFrom="0" laneChangedTo="0"/>
        <edge id="21to23" sampledSeconds="727.24" traveltime="13.34" density="10.96" occupancy="2.74" waitingTime="0.00" speed="12.96" departed="0" arrived="0" entered="53" left="53" laneChangedFrom="0" laneChangedTo="0"/>
        <edge id="22to21" sampledSeconds="1062.89" traveltime="62.57" density="22.79" occupancy="11.39" waitingTime="730.00" speed="1.94" departed="17" arrived="0" entered="0" left="17" laneChangedFrom="0" laneChangedTo="0"/>
        <edge id="23to21" sampledSeconds="980.86" traveltime="34.05" density="14.78" occupancy="2.46" waitingTime="511.00" speed="5.07" departed="0" arrived="0" entered="28" left="28" laneChangedFrom="2" laneChangedTo="2"/>
        <edge id="23to24" sampledSeconds="810.01" traveltime="15.16" density="10.47" occupancy="2.62" waitingTime="0.00" speed="13.29" departed="0" arrived="0" entered="53" left="49" laneChangedFrom="0" laneChangedTo="0"/>
        <edge id="24to23" sampledSeconds="433.63" traveltime="15.11" density="5.61" occupancy="1.40" waitingTime="0.00" speed="13.33" departed="0" arrived="0" entered="28" left="28" laneChangedFrom="6" laneChangedTo="6"/>
        <edge id="24to25" sampledSeconds="328.55" traveltime="6.65" density="9.68" occupancy="2.42" waitingTime="0.00" speed="13.28" departed="0" arrived="0" entered="49" left="45" laneChangedFrom="0" laneChangedTo="0"/>
        <edge id="25to24" sampledSeconds="195.90" traveltime="6.62" density="5.77" occupancy="1.44" waitingTime="0.00" speed="13.35" departed="0" arrived="0" entered="28" left="28" laneChangedFrom="0" laneChangedTo="0"/>
        <edge id="25to26" sampledSeconds="253.60" traveltime="5.65" density="8.86" occupancy="2.22" waitingTime="0.00" speed="13.18" departed="0" arrived="0" entered="45" left="40" laneChangedFrom="0" laneChangedTo="0"/>
        <edge id="26to25" sampledSeconds="166.83" traveltime="5.58" density="5.83" occupancy="1.46" waitingTime="0.00" speed="13.34" departed="0" arrived="0" entered="28" left="28" laneChangedFrom="0" laneChangedTo="0"/>
        <edge id="26to27" sampledSeconds="213.58" traveltime="4.95" density="8.73" occupancy="2.18" waitingTime="0.00" speed="12.86" departed="0" arrived="0" entered="40" left="40" laneChangedFrom="5" laneChangedTo="5"/>
        <edge id="27to26" sampledSeconds="147.26" traveltime="4.79" density="6.02" occupancy="1.51" waitingTime="0.00" speed="13.30" departed="0" arrived="0" entered="29" left="28" laneChangedFrom="0" laneChangedTo="0"/>
        <edge id="27to28" sampledSeconds="147.47" traveltime="3.30" density="8.94" occupancy="2.23" waitingTime="0.00" speed="13.01" departed="0" arrived="0" entered="40" left="40" laneChangedFrom="0" laneChangedTo="0"/>
        <edge id="28to27" sampledSeconds="105.03" traveltime="3.24" density="6.37" occupancy="1.59" waitingTime="0.00" speed="13.24" departed="0" arrived="0" entered="29" left="29" laneChangedFrom="0" laneChangedTo="0"/>
        <edge id="28to39" sampledSeconds="126.70" traveltime="2.79" density="8.99" occupancy="2.25" waitingTime="0.00" speed="13.17" departed="0" arrived="0" entered="40" left="40" laneChangedFrom="2" laneChangedTo="2"/>
        <edge id="29to30" sampledSeconds="1282.25" traveltime="31.73" density="97.64" occupancy="16.27" waitingTime="954.00" speed="1.08" departed="0" arrived="0" entered="39" left="30" laneChangedFrom="3" laneChangedTo="3"/>
        <edge id="29to39" sampledSeconds="340.69" traveltime="11.38" density="5.87" occupancy="1.47" waitingTime="0.00" speed="13.27" departed="0" arrived="0" entered="29" left="29" laneChangedFrom="0" laneChangedTo="0"/>
        <edge id="2to14" sampledSeconds="8908.15" traveltime="60.80" density="103.22" occupancy="10.32" waitingTime="3629.00" speed="3.70" departed="159" arrived="0" entered="0" left="122" laneChangedFrom="223" laneChangedTo="223"/>
        <edge id="30to29" sampledSeconds="90.29" traveltime="2.72" density="6.90" occupancy="1.72" waitingTime="0.00" speed="12.56" departed="0" arrived="0" entered="29" left="29" laneChangedFrom="1" laneChangedTo="1"/>
        <edge id="30to31" sampledSeconds="44.12" traveltime="1.60" density="5.85" occupancy="1.46" waitingTime="0.00" speed="12.29" departed="0" arrived="0" entered="22" left="22" laneChangedFrom="0" laneChangedTo="0"/>
        <edge id="30to32" sampledSeconds="9.96" traveltime="0.76" density="3.15" occupancy="0.79" waitingTime="0.00" speed="10.88" departed="0" arrived="0" entered="9" left="8" laneChangedFrom="0" laneChangedTo="0"/>
        <edge id="31to30" sampledSeconds="101.27" traveltime="7.32" density="13.57" occupancy="2.26" waitingTime="66.00" speed="2.65" departed="0" arrived="0" entered="11" left="11" laneChangedFrom="1" laneChangedTo="1"/>
        <edge id="31to34" sampledSeconds="117.66" traveltime="4.96" density="4.78" occupancy="1.20" waitingTime="0.00" speed="12.91" departed="0" arrived="0" entered="22" left="22" laneChangedFrom="1" laneChangedTo="1"/>
        <edge id="32to30" sampledSeconds="275.84" traveltime="9.03" density="87.28" occupancy="21.82" waitingTime="231.00" speed="0.91" departed="0" arrived="0" entered="19" left="19" laneChangedFrom="0" laneChangedTo="0"/>
        <edge id="32to33" sampledSeconds="53.28" traveltime="7.08" density="1.49" occupancy="0.37" waitingTime="0.00" speed="13.19" departed="0" arrived="7" entered="8" left="0" laneChangedFrom="0" laneChangedTo="0"/>
        <edge id="33to32" sampledSeconds="323.33" traveltime="17.04" density="9.02" occupancy="2.25" waitingTime="90.00" speed="5.48" departed="19" arrived="0" entered="0" left="19" laneChangedFrom="1" laneChangedTo="1"/>
        <edge id="34to31" sampledSeconds="62.10" traveltime="5.24" density="2.53" occupancy="0.42" waitingTime="0.00" speed="12.20" departed="0" arrived="0" entered="11" left="11" laneChangedFrom="1" laneChangedTo="1"/>
        <edge id="34to35" sampledSeconds="780.71" traveltime="35.08" density="4.68" occupancy="1.17" waitingTime="0.00" speed="12.38" departed="0" arrived="0" entered="22" left="22" laneChangedFrom="10" laneChangedTo="10"/>
        <edge id="35to34" sampledSeconds="413.13" traveltime="32.62" density="2.48" occupancy="0.62" waitingTime="0.00" speed="13.32" departed="0" arrived="0" entered="13" left="11" laneChangedFrom="12" laneChangedTo="12"/>
        <edge id="35to36" sampledSeconds="166.86" traveltime="7.08" density="6.20" occupancy="1.55" waitingTime="0.00" speed="9.90" departed="0" arrived="0" entered="22" left="22" laneChangedFrom="2" laneChangedTo="2"/>
        <edge id="36to35" sampledSeconds="72.86" traveltime="5.23" density="2.71" occupancy="0.68" waitingTime="0.00" speed="13.38" departed="0" arrived="0" entered="13" left="13" laneChangedFrom="0" laneChangedTo="0"/>
        <edge id="36to37" sampledSeconds="121.80" traveltime="5.13" density="5.05" occupancy="1.26" waitingTime="0.00" speed="12.24" departed="0" arrived="0" entered="22" left="22" laneChangedFrom="2" laneChangedTo="2"/>
        <edge id="37to36" sampledSeconds="65.99" traveltime="4.70" density="2.74" occupancy="0.68" waitingTime="0.00" speed="13.35" departed="0" arrived="0" entered="13" left="13" laneChangedFrom="0" laneChangedTo="0"/>
        <edge id="37to38" sampledSeconds="86.30" traveltime="3.54" density="4.87" occupancy="1.22" waitingTime="0.00" speed="13.03" departed="0" arrived="0" entered="22" left="22" laneChangedFrom="1" laneChangedTo="1"/>
        <edge id="38to37" sampledSeconds="49.57" traveltime="3.44" density="2.80" occupancy="0.70" waitingTime="0.00" speed="13.41" departed="0" arrived="0" entered="13" left="13" laneChangedFrom="0" laneChangedTo="0"/>
        <edge id="38to40" sampledSeconds="237.24" traveltime="11.32" density="9.59" occupancy="1.60" waitingTime="64.00" speed="5.69" departed="0" arrived="0" entered="22" left="13" laneChangedFrom="5" laneChangedTo="5"/>
        <edge id="39to28" sampledSeconds="91.22" traveltime="2.77" density="6.47" occupancy="1.62" waitingTime="0.00" speed="13.26" departed="0" arrived="0" entered="29" left="29" laneChangedFrom="1" laneChangedTo="1"/>
        <edge id="39to29" sampledSeconds="789.58" traveltime="19.58" density="13.60" occupancy="2.27" waitingTime="191.00" speed="7.72" departed="0" arrived="0" entered="40" left="39" laneChangedFrom="4" laneChangedTo="4"/>
        <edge id="3to17" sampledSeconds="4570.75" traveltime="64.43" density="60.98" occupancy="7.62" waitingTime="2394.00" speed="3.03" departed="71" arrived="0" entered="0" left="71" laneChangedFrom="87" laneChangedTo="87"/>
        <edge id="40to38" sampledSeconds="67.72" traveltime="4.83" density="2.74" occupancy="0.68" waitingTime="0.00" speed="13.32" departed="0" arrived="0" entered="13" left="13" laneChangedFrom="1" laneChangedTo="1"/>
        <edge id="40to41" sampledSeconds="61.31" traveltime="2.00" density="6.87" occupancy="1.15" waitingTime="0.00" speed="11.64" departed="0" arrived="25" entered="27" left="0" laneChangedFrom="0" laneChangedTo="0"/>
        <edge id="40to42" sampledSeconds="173.70" traveltime="13.35" density="3.95" occupancy="0.99" waitingTime="18.00" speed="8.57" departed="0" arrived="0" entered="13" left="8" laneChangedFrom="1" laneChangedTo="1"/>
        <edge id="42to40" sampledSeconds="1102.89" traveltime="22.80" density="25.11" occupancy="3.14" waitingTime="399.00" speed="5.02" departed="0" arrived="0" entered="47" left="41" laneChangedFrom="28" laneChangedTo="28"/>
        <edge id="42to43" sampledSeconds="212.49" traveltime="23.03" density="47.09" occupancy="7.85" waitingTime="171.00" speed="0.51" departed="0" arrived="0" entered="8" left="5" laneChangedFrom="1" laneChangedTo="1"/>
        <edge id="43to42" sampledSeconds="72.62" traveltime="1.09" density="16.09" occupancy="2.68" waitingTime="0.00" speed="10.78" departed="0" arrived="0" entered="47" left="47" laneChangedFrom="5" laneChangedTo="5"/>
        <edge id="43to45" sampledSeconds="588.52" traveltime="7.42" density="16.06" occupancy="4.02" waitingTime="0.00" speed="12.86" departed="0" arrived="76" entered="76" left="0" laneChangedFrom="0" laneChangedTo="0"/>
        <edge id="43to46" sampledSeconds="520.26" traveltime="25.59" density="4.58" occupancy="1.15" waitingTime="20.00" speed="11.56" departed="0" arrived="0" entered="20" left="20" laneChangedFrom="7" laneChangedTo="7"/>
        <edge id="44to43" sampledSeconds="3659.60" traveltime="45.22" density="84.11" occupancy="8.41" waitingTime="2147.00" speed="2.51" departed="81" arrived="0" entered="0" left="81" laneChangedFrom="182" laneChangedTo="182"/>
        <edge id="45to43" sampledSeconds="1143.25" traveltime="45.81" density="31.20" occupancy="7.80" waitingTime="716.00" speed="2.08" departed="25" arrived="0" entered="0" left="25" laneChangedFrom="25" laneChangedTo="25"/>
        <edge id="46to43" sampledSeconds="2071.71" traveltime="49.36" density="18.24" occupancy="4.56" waitingTime="804.00" speed="5.99" departed="0" arrived="0" entered="42" left="32" laneChangedFrom="9" laneChangedTo="9"/>
        <edge id="46to47" sampledSeconds="540.75" traveltime="20.87" density="94.64" occupancy="11.83" waitingTime="424.00" speed="0.71" departed="0" arrived="0" entered="20" left="18" laneChangedFrom="0" laneChangedTo="0"/>
        <edge id="47to46" sampledSeconds="66.11" traveltime="1.18" density="11.57" occupancy="2.89" waitingTime="0.00" speed="12.63" departed="0" arrived="0" entered="42" left="42" laneChangedFrom="0" laneChangedTo="0"/>
        <edge id="47to48" sampledSeconds="496.94" traveltime="8.72" density="11.57" occupancy="2.89" waitingTime="0.00" speed="12.83" departed="0" arrived="55" entered="55" left="0" laneChangedFrom="0" laneChangedTo="0"/>
        <edge id="47to49" sampledSeconds="587.22" traveltime="9.00" density="13.17" occupancy="3.29" waitingTime="0.00" speed="12.90" departed="0" arrived="63" entered="63" left="0" laneChangedFrom="0" laneChangedTo="0"/>
        <edge id="47to50" sampledSeconds="73.90" traveltime="1.45" density="10.49" occupancy="2.62" waitingTime="0.00" speed="12.64" departed="0" arrived="0" entered="40" left="40" laneChangedFrom="1" laneChangedTo="1"/>
        <edge id="48to47" sampledSeconds="4097.78" traveltime="54.69" density="95.41" occupancy="9.54" waitingTime="2611.00" speed="2.05" departed="75" arrived="0" entered="0" left="75" laneChangedFrom="117" laneChangedTo="117"/>
        <edge id="49to47" sampledSeconds="3704.41" traveltime="45.77" density="83.07" occupancy="8.31" waitingTime="2113.00" speed="2.54" departed="81" arrived="0" entered="0" left="81" laneChangedFrom="114" laneChangedTo="114"/>
        <edge id="4to13" sampledSeconds="8.21" traveltime="1.67" density="0.97" occupancy="0.24" waitingTime="0.00" speed="13.16" departed="0" arrived="0" entered="4" left="4" laneChangedFrom="0" laneChangedTo="0"/>
        <edge id="4to16" sampledSeconds="7322.76" traveltime="119.53" density="156.59" occupancy="26.10" waitingTime="5168.00" speed="1.02" departed="0" arrived="0" entered="72" left="44" laneChangedFrom="0" laneChangedTo="0"/>
        <edge id="4to5" sampledSeconds="979.10" traveltime="15.75" density="12.14" occupancy="2.02" waitingTime="0.00" speed="13.34" departed="0" arrived="60" entered="62" left="0" laneChangedFrom="16" laneChangedTo="16"/>
        <edge id="50to47" sampledSeconds="1138.80" traveltime="29.91" density="161.61" occupancy="26.94" waitingTime="914.00" speed="0.61" departed="0" arrived="0" entered="35" left="26" laneChangedFrom="2" laneChangedTo="2"/>
        <edge id="50to51" sampledSeconds="688.15" traveltime="16.81" density="8.53" occupancy="2.13" waitingTime="3.00" speed="12.50" departed="0" arrived="0" entered="40" left="40" laneChangedFrom="7" laneChangedTo="7"/>
        <edge id="51to50" sampledSeconds="1400.54" traveltime="30.62" density="17.36" occupancy="4.34" waitingTime="405.00" speed="6.86" departed="0" arrived="0" entered="48" left="35" laneChangedFrom="8" laneChangedTo="8"/>
        <edge id="51to52" sampledSeconds="538.01" traveltime="11.63" density="49.53" occupancy="8.25" waitingTime="312.00" speed="2.43" departed="0" arrived="0" entered="40" left="38" laneChangedFrom="6" laneChangedTo="6"/>
        <edge id="52to51" sampledSeconds="126.99" traveltime="2.25" density="11.69" occupancy="2.92" waitingTime="0.00" speed="12.57" departed="0" arrived="0" entered="48" left="48" laneChangedFrom="1" laneChangedTo="1"/>
        <edge id="52to53" sampledSeconds="92.68" traveltime="4.56" density="4.11" occupancy="2.06" waitingTime="0.00" speed="12.85" departed="0" arrived="19" entered="20" left="0" laneChangedFrom="0" laneChangedTo="0"/>
        <edge id="52to54" sampledSeconds="45.48" traveltime="3.20" density="2.98" occupancy="1.49" waitingTime="0.00" speed="12.42" departed="0" arrived="13" entered="13" left="0" laneChangedFrom="0" laneChangedTo="0"/>
        <edge id="52to55" sampledSeconds="121.92" traveltime="2.67" density="10.98" occupancy="2.74" waitingTime="0.00" speed="10.85" departed="0" arrived="0" entered="39" left="39" laneChangedFrom="2" laneChangedTo="2"/>
        <edge id="53to52" sampledSeconds="785.42" traveltime="46.28" density="34.87" occupancy="8.72" waitingTime="537.00" speed="1.27" departed="17" arrived="0" entered="0" left="17" laneChangedFrom="3" laneChangedTo="3"/>
        <edge id="54to52" sampledSeconds="713.80" traveltime="42.09" density="46.82" occupancy="11.71" waitingTime="501.00" speed="0.94" departed="17" arrived="0" entered="0" left="17" laneChangedFrom="1" laneChangedTo="1"/>
        <edge id="55to52" sampledSeconds="507.04" traveltime="8.25" density="45.66" occupancy="7.61" waitingTime="277.00" speed="3.51" departed="0" arrived="0" entered="56" left="49" laneChangedFrom="2" laneChangedTo="2"/>
        <edge id="55to56" sampledSeconds="694.32" traveltime="18.34" density="8.01" occupancy="2.00" waitingTime="0.00" speed="12.30" departed="0" arrived="0" entered="39" left="34" laneChangedFrom="8" laneChangedTo="8"/>
        <edge id="56to55" sampledSeconds="1048.20" traveltime="18.01" density="12.09" occupancy="3.02" waitingTime="0.00" speed="12.53" departed="0" arrived="0" entered="57" left="56" laneChangedFrom="9" laneChangedTo="9"/>
        <edge id="56to57" sampledSeconds="406.11" traveltime="10.59" density="28.10" occupancy="3.51" waitingTime="208.00" speed="3.56" departed="0" arrived="0" entered="34" left="33" laneChangedFrom="7" laneChangedTo="7"/>
        <edge id="57to56" sampledSeconds="197.15" traveltime="3.05" density="13.64" occupancy="3.41" waitingTime="0.00" speed="12.33" departed="0" arrived="0" entered="57" left="57" laneChangedFrom="0" laneChangedTo="0"/>
        <edge id="57to58" sampledSeconds="77.25" traveltime="3.29" density="4.72" occupancy="1.18" waitingTime="0.00" speed="12.93" departed="0" arrived="0" entered="21" left="21" laneChangedFrom="0" laneChangedTo="0"/>
        <edge id="57to60" sampledSeconds="136.27" traveltime="2.92" density="9.73" occupancy="2.43" waitingTime="0.00" speed="12.48" departed="0" arrived="0" entered="41" left="41" laneChangedFrom="0" laneChangedTo="0"/>
        <edge id="57to62" sampledSeconds="299.15" traveltime="4.87" density="12.46" occupancy="3.12" waitingTime="0.00" speed="12.84" departed="0" arrived="0" entered="57" left="57" laneChangedFrom="4" laneChangedTo="4"/>
        <edge id="58to57" sampledSeconds="1693.63" traveltime="43.46" density="103.58" occupancy="17.26" waitingTime="1261.00" speed="0.98" departed="0" arrived="0" entered="35" left="34" laneChangedFrom="11" laneChangedTo="11"/>
        <edge id="58to59" sampledSeconds="90.57" traveltime="4.04" density="4.37" occupancy="1.09" waitingTime="0.00" speed="13.35" departed="0" arrived="21" entered="21" left="0" laneChangedFrom="0" laneChangedTo="0"/>
        <edge id="59to58" sampledSeconds="257.96" traveltime="7.38" density="12.44" occupancy="2.07" waitingTime="0.00" speed="7.31" departed="35" arrived="0" entered="0" left="35" laneChangedFrom="11" laneChangedTo="11"/>
        <edge id="5to4" sampledSeconds="2629.83" traveltime="35.15" density="32.60" occupancy="5.43" waitingTime="749.00" speed="5.98" departed="75" arrived="0" entered="0" left="73" laneChangedFrom="80" laneChangedTo="80"/>
        <edge id="60to57" sampledSeconds="1580.20" traveltime="34.01" density="112.84" occupancy="18.81" waitingTime="1179.00" speed="1.07" departed="0" arrived="0" entered="41" left="40" laneChangedFrom="6" laneChangedTo="6"/>
        <edge id="60to61" sampledSeconds="148.40" traveltime="3.30" density="8.80" occupancy="2.20" waitingTime="0.00" speed="13.33" departed="0" arrived="41" entered="41" left="0" laneChangedFrom="0" laneChangedTo="0"/>
        <edge id="61to60" sampledSeconds="409.25" traveltime="10.01" density="24.25" occupancy="6.06" waitingTime="81.00" speed="4.39" departed="41" arrived="0" entered="0" left="41" laneChangedFrom="11" laneChangedTo="11"/>
        <edge id="62to57" sampledSeconds="2506.03" traveltime="32.82" density="104.42" occupancy="17.40" waitingTime="1602.00" speed="1.90" departed="0" arrived="0" entered="71" left="69" laneChangedFrom="2" laneChangedTo="2"/>
        <edge id="62to63" sampledSeconds="425.28" traveltime="7.05" density="12.94" occupancy="3.24" waitingTime="0.00" speed="12.14" departed="0" arrived="0" entered="57" left="57" laneChangedFrom="16" laneChangedTo="16"/>
        <edge id="63to62" sampledSeconds="758.58" traveltime="10.09" density="23.09" occupancy="5.77" waitingTime="109.00" speed="8.48" departed="0" arrived="0" entered="72" left="71" laneChangedFrom="9" laneChangedTo="9"/>
        <edge id="63to64" sampledSeconds="346.32" traveltime="5.18" density="32.90" occupancy="5.48" waitingTime="94.00" speed="5.29" departed="0" arrived="0" entered="57" left="56" laneChangedFrom="0" laneChangedTo="0"/>
        <edge id="64to63" sampledSeconds="186.17" traveltime="2.17" density="17.69" occupancy="4.42" waitingTime="0.00" speed="12.66" departed="0" arrived="0" entered="73" left="72" laneChangedFrom="1" laneChangedTo="1"/>
        <edge id="64to65" sampledSeconds="104.95" traveltime="5.50" density="3.99" occupancy="1.99" waitingTime="0.00" speed="12.46" departed="0" arrived="18" entered="18" left="0" laneChangedFrom="0" laneChangedTo="0"/>
        <edge id="64to66" sampledSeconds="13.68" traveltime="1.83" density="1.50" occupancy="0.75" waitingTime="0.00" speed="12.98" departed="0" arrived="6" entered="7" left="0" laneChangedFrom="0" laneChangedTo="0"/>
        <edge id="64to67" sampledSeconds="122.63" traveltime="2.40" density="10.65" occupancy="2.66" waitingTime="0.00" speed="12.52" departed="0" arrived="0" entered="44" left="44" laneChangedFrom="0" laneChangedTo="0"/>
        <edge id="65to64" sampledSeconds="0.00" departed="0" arrived="0" entered="0" left="0" laneChangedFrom="0" laneChangedTo="0"/>
        <edge id="66to64" sampledSeconds="606.01" traveltime="35.80" density="66.28" occupancy="33.14" waitingTime="477.00" speed="0.67" departed="17" arrived="0" entered="0" left="17" laneChangedFrom="0" laneChangedTo="0"/>
        <edge id="67to64" sampledSeconds="225.48" traveltime="2.67" density="19.59" occupancy="3.26" waitingTime="25.00" speed="11.24" departed="0" arrived="0" entered="73" left="72" laneChangedFrom="1" laneChangedTo="1"/>
        <edge id="67to68" sampledSeconds="431.23" traveltime="10.34" density="8.65" occupancy="2.16" waitingTime="3.00" speed="12.55" departed="0" arrived="0" entered="43" left="37" laneChangedFrom="5" laneChangedTo="5"/>
        <edge id="68to67" sampledSeconds="822.99" traveltime="10.32" density="16.51" occupancy="4.13" waitingTime="0.00" speed="12.57" departed="0" arrived="0" entered="80" left="73" laneChangedFrom="10" laneChangedTo="10"/>
        <edge id="68to69" sampledSeconds="641.72" traveltime="15.18" density="57.57" occupancy="9.59" waitingTime="422.00" speed="1.91" departed="0" arrived="0" entered="37" left="36" laneChangedFrom="3" laneChangedTo="3"/>
        <edge id="69to68" sampledSeconds="238.58" traveltime="2.49" density="21.40" occupancy="5.35" waitingTime="0.00" speed="11.67" departed="0" arrived="0" entered="83" left="81" laneChangedFrom="1" laneChangedTo="1"/>
        <edge id="69to70" sampledSeconds="100.35" traveltime="3.53" density="5.66" occupancy="2.83" waitingTime="0.00" speed="13.10" departed="0" arrived="26" entered="26" left="0" laneChangedFrom="0" laneChangedTo="0"/>
        <edge id="69to71" sampledSeconds="77.52" traveltime="3.57" density="4.44" occupancy="2.22" waitingTime="0.00" speed="12.72" departed="0" arrived="20" entered="20" left="0" laneChangedFrom="0" laneChangedTo="0"/>
        <edge id="69to72" sampledSeconds="191.51" traveltime="5.42" density="7.23" occupancy="1.81" waitingTime="0.00" speed="12.73" departed="0" arrived="0" entered="33" left="33" laneChangedFrom="1" laneChangedTo="1"/>
        <edge id="6to15" sampledSeconds="502.56" traveltime="25.27" density="16.23" occupancy="2.03" waitingTime="295.00" speed="3.19" departed="0" arrived="0" entered="20" left="17" laneChangedFrom="3" laneChangedTo="3"/>