<?xml version="1.0" encoding="UTF-8"?>

<!-- generated on 3/14/2016 4:21:18 PM by SUMO gui Version 0.24.0
<?xml version="1.0" encoding="UTF-8"?>

<configuration xmlns:xsi="http://www.w3.org/2001/XMLSchema-instance" xsi:noNamespaceSchemaLocation="http://sumo.dlr.de/xsd/sumo-gui.exeConfiguration.xsd">

    <input>
        <net-file value="huntingtonColorado.net.xml"/>
        <route-files value="huntingtonColorado.rou.xml"/>
        <additional-files value="huntingtonColoradoMyAdd.add.xml"/>
    </input>

    <time>
        <begin value="0"/>
        <end value="20000"/>
    </time>

    <processing>
        <time-to-teleport value="-1"/>
    </processing>

</configuration>
-->

<meandata xmlns:xsi="http://www.w3.org/2001/XMLSchema-instance" xsi:noNamespaceSchemaLocation="http://sumo.dlr.de/xsd/meandata_file.xsd">
    <interval begin="0.00" end="500.00" id="id_test1">
        <edge id="10to9" sampledSeconds="13.56" traveltime="0.98" density="2.09" occupancy="0.52" waitingTime="0.00" speed="13.28" departed="0" arrived="0" entered="10" left="10" laneChangedFrom="0" laneChangedTo="0"/>
        <edge id="11to10" sampledSeconds="14.78" traveltime="1.11" density="1.99" occupancy="0.50" waitingTime="0.00" speed="13.45" departed="0" arrived="0" entered="10" left="10" laneChangedFrom="0" laneChangedTo="0"/>
        <edge id="12to11" sampledSeconds="18.21" traveltime="1.44" density="1.90" occupancy="0.47" waitingTime="0.00" speed="13.29" departed="0" arrived="0" entered="10" left="10" laneChangedFrom="0" laneChangedTo="0"/>
        <edge id="13to12" sampledSeconds="16.81" traveltime="1.31" density="1.90" occupancy="0.48" waitingTime="0.00" speed="13.48" departed="0" arrived="0" entered="10" left="10" laneChangedFrom="0" laneChangedTo="0"/>
        <edge id="14to1" sampledSeconds="1364.49" traveltime="2.41" density="1082.93" occupancy="108.29" waitingTime="1156.00" speed="1.05" departed="0" arrived="0" entered="192" left="189" laneChangedFrom="6" laneChangedTo="6"/>
        <edge id="14to2" sampledSeconds="207.21" traveltime="6.55" density="4.83" occupancy="1.21" waitingTime="0.00" speed="13.11" departed="0" arrived="30" entered="32" left="0" laneChangedFrom="0" laneChangedTo="0"/>
        <edge id="15to1" sampledSeconds="133.11" traveltime="2.80" density="67.40" occupancy="8.42" waitingTime="99.00" speed="1.41" departed="0" arrived="0" entered="21" left="21" laneChangedFrom="0" laneChangedTo="0"/>
        <edge id="15to6" sampledSeconds="1171.37" traveltime="6.16" density="28.95" occupancy="7.24" waitingTime="0.00" speed="13.13" departed="0" arrived="0" entered="181" left="178" laneChangedFrom="9" laneChangedTo="9"/>
        <edge id="16to1" sampledSeconds="2137.02" traveltime="24.66" density="391.40" occupancy="65.23" waitingTime="1835.00" speed="0.44" departed="0" arrived="0" entered="63" left="57" laneChangedFrom="6" laneChangedTo="6"/>
        <edge id="16to4" sampledSeconds="963.03" traveltime="9.25" density="15.82" occupancy="2.64" waitingTime="0.00" speed="13.16" departed="0" arrived="0" entered="100" left="100" laneChangedFrom="43" laneChangedTo="43"/>
        <edge id="17to1" sampledSeconds="2332.12" traveltime="14.94" density="372.54" occupancy="46.57" waitingTime="1890.00" speed="0.84" departed="0" arrived="0" entered="114" left="109" laneChangedFrom="1" laneChangedTo="1"/>
        <edge id="17to3" sampledSeconds="385.86" traveltime="6.09" density="9.66" occupancy="2.41" waitingTime="0.00" speed="13.12" departed="0" arrived="60" entered="60" left="0" laneChangedFrom="0" laneChangedTo="0"/>
        <edge id="18to19" sampledSeconds="3109.73" traveltime="23.69" density="77.03" occupancy="19.26" waitingTime="1753.00" speed="3.41" departed="0" arrived="0" entered="133" left="113" laneChangedFrom="9" laneChangedTo="9"/>
        <edge id="18to7" sampledSeconds="3099.59" traveltime="97.53" density="4.77" occupancy="1.19" waitingTime="0.00" speed="13.32" departed="0" arrived="0" entered="36" left="30" laneChangedFrom="6" laneChangedTo="6"/>
        <edge id="19to18" sampledSeconds="243.40" traveltime="6.25" density="6.03" occupancy="1.51" waitingTime="0.00" speed="12.92" departed="0" arrived="0" entered="37" left="36" laneChangedFrom="7" laneChangedTo="7"/>
        <edge id="19to20" sampledSeconds="122.13" traveltime="5.50" density="3.46" occupancy="1.73" waitingTime="0.00" speed="12.83" departed="0" arrived="21" entered="21" left="0" laneChangedFrom="0" laneChangedTo="0"/>
        <edge id="19to21" sampledSeconds="1635.19" traveltime="13.14" density="47.36" occupancy="11.84" waitingTime="721.00" speed="5.25" departed="0" arrived="0" entered="116" left="116" laneChangedFrom="7" laneChangedTo="7"/>
        <edge id="1to14" sampledSeconds="23.11" traveltime="0.24" density="18.34" occupancy="4.58" waitingTime="0.00" speed="10.41" departed="0" arrived="0" entered="32" left="32" laneChangedFrom="0" laneChangedTo="0"/>
        <edge id="1to15" sampledSeconds="140.30" traveltime="0.36" density="66.34" occupancy="16.58" waitingTime="0.00" speed="11.91" departed="0" arrived="0" entered="181" left="181" laneChangedFrom="0" laneChangedTo="0"/>
        <edge id="1to16" sampledSeconds="158.05" traveltime="1.08" density="28.95" occupancy="4.82" waitingTime="0.00" speed="10.11" departed="0" arrived="0" entered="101" left="100" laneChangedFrom="1" laneChangedTo="1"/>
        <edge id="1to17" sampledSeconds="97.90" traveltime="1.17" density="15.52" occupancy="3.88" waitingTime="0.00" speed="10.80" departed="0" arrived="0" entered="60" left="60" laneChangedFrom="0" laneChangedTo="0"/>
        <edge id="20to19" sampledSeconds="1245.51" traveltime="44.55" density="35.27" occupancy="17.63" waitingTime="883.00" speed="1.59" departed="28" arrived="0" entered="0" left="28" laneChangedFrom="0" laneChangedTo="0"/>
        <edge id="21to19" sampledSeconds="920.98" traveltime="21.78" density="26.68" occupancy="4.45" waitingTime="581.00" speed="3.17" departed="0" arrived="0" entered="41" left="36" laneChangedFrom="8" laneChangedTo="8"/>
        <edge id="21to22" sampledSeconds="144.63" traveltime="5.73" density="3.97" occupancy="1.98" waitingTime="0.00" speed="12.72" departed="0" arrived="24" entered="24" left="0" laneChangedFrom="0" laneChangedTo="0"/>
        <edge id="21to23" sampledSeconds="1468.93" traveltime="13.13" density="17.00" occupancy="4.25" waitingTime="0.00" speed="13.16" departed="0" arrived="0" entered="109" left="108" laneChangedFrom="12" laneChangedTo="12"/>
        <edge id="22to21" sampledSeconds="1524.92" traveltime="55.64" density="41.85" occupancy="20.93" waitingTime="1151.00" speed="1.31" departed="28" arrived="0" entered="0" left="25" laneChangedFrom="0" laneChangedTo="0"/>
        <edge id="23to21" sampledSeconds="1230.84" traveltime="34.23" density="14.25" occupancy="2.37" waitingTime="664.00" speed="5.05" departed="0" arrived="0" entered="37" left="33" laneChangedFrom="6" laneChangedTo="6"/>
        <edge id="23to24" sampledSeconds="1611.62" traveltime="15.09" density="16.00" occupancy="4.00" waitingTime="0.00" speed="13.34" departed="0" arrived="0" entered="108" left="97" laneChangedFrom="12" laneChangedTo="12"/>
        <edge id="24to23" sampledSeconds="572.62" traveltime="15.10" density="5.69" occupancy="1.42" waitingTime="0.00" speed="13.34" departed="0" arrived="0" entered="37" left="37" laneChangedFrom="11" laneChangedTo="11"/>
        <edge id="24to25" sampledSeconds="663.03" traveltime="6.65" density="15.00" occupancy="3.75" waitingTime="0.00" speed="13.28" departed="0" arrived="0" entered="97" left="92" laneChangedFrom="6" laneChangedTo="6"/>
        <edge id="25to24" sampledSeconds="259.10" traveltime="6.63" density="5.86" occupancy="1.47" waitingTime="0.00" speed="13.33" departed="0" arrived="0" entered="37" left="37" laneChangedFrom="1" laneChangedTo="1"/>
        <edge id="25to26" sampledSeconds="562.35" traveltime="5.79" density="15.09" occupancy="3.77" waitingTime="0.00" speed="12.87" departed="0" arrived="0" entered="92" left="91" laneChangedFrom="16" laneChangedTo="16"/>
        <edge id="26to25" sampledSeconds="220.47" traveltime="5.58" density="5.92" occupancy="1.48" waitingTime="0.00" speed="13.34" departed="0" arrived="0" entered="37" left="37" laneChangedFrom="1" laneChangedTo="1"/>
        <edge id="26to27" sampledSeconds="502.25" traveltime="5.12" density="15.77" occupancy="3.94" waitingTime="0.00" speed="12.44" departed="0" arrived="0" entered="91" left="91" laneChangedFrom="10" laneChangedTo="10"/>
        <edge id="27to26" sampledSeconds="190.81" traveltime="4.78" density="5.99" occupancy="1.50" waitingTime="0.00" speed="13.32" departed="0" arrived="0" entered="37" left="37" laneChangedFrom="2" laneChangedTo="2"/>
        <edge id="27to28" sampledSeconds="341.72" traveltime="3.36" density="15.91" occupancy="3.98" waitingTime="0.00" speed="12.77" departed="0" arrived="0" entered="91" left="91" laneChangedFrom="3" laneChangedTo="3"/>
        <edge id="28to27" sampledSeconds="132.57" traveltime="3.21" density="6.17" occupancy="1.54" waitingTime="0.00" speed="13.39" departed="0" arrived="0" entered="37" left="37" laneChangedFrom="1" laneChangedTo="1"/>
        <edge id="28to39" sampledSeconds="285.71" traveltime="2.78" density="15.57" occupancy="3.89" waitingTime="0.00" speed="13.18" departed="0" arrived="0" entered="91" left="90" laneChangedFrom="0" laneChangedTo="0"/>
        <edge id="29to30" sampledSeconds="2585.01" traveltime="30.91" density="151.17" occupancy="25.19" waitingTime="2144.00" speed="1.11" departed="0" arrived="0" entered="77" left="68" laneChangedFrom="8" laneChangedTo="8"/>
        <edge id="29to39" sampledSeconds="444.90" traveltime="11.32" density="5.89" occupancy="1.47" waitingTime="0.00" speed="13.34" departed="0" arrived="0" entered="39" left="38" laneChangedFrom="0" laneChangedTo="0"/>
        <edge id="2to14" sampledSeconds="7712.12" traveltime="38.55" density="179.77" occupancy="17.98" waitingTime="4575.00" speed="2.23" departed="214" arrived="0" entered="0" left="192" laneChangedFrom="304" laneChangedTo="304"/>
        <edge id="30to29" sampledSeconds="119.11" traveltime="2.66" density="6.99" occupancy="1.75" waitingTime="0.00" speed="12.80" departed="0" arrived="0" entered="39" left="39" laneChangedFrom="0" laneChangedTo="0"/>
        <edge id="30to31" sampledSeconds="92.62" traveltime="1.54" density="9.43" occupancy="2.36" waitingTime="0.00" speed="12.77" departed="0" arrived="0" entered="48" left="48" laneChangedFrom="0" laneChangedTo="0"/>
        <edge id="30to32" sampledSeconds="23.89" traveltime="0.71" density="5.80" occupancy="1.45" waitingTime="0.00" speed="11.64" departed="0" arrived="0" entered="21" left="21" laneChangedFrom="0" laneChangedTo="0"/>
        <edge id="31to30" sampledSeconds="111.67" traveltime="6.22" density="11.49" occupancy="1.92" waitingTime="59.00" speed="3.13" departed="0" arrived="0" entered="15" left="13" laneChangedFrom="0" laneChangedTo="0"/>
        <edge id="31to34" sampledSeconds="247.07" traveltime="4.84" density="7.72" occupancy="1.93" waitingTime="0.00" speed="13.24" departed="0" arrived="0" entered="48" left="47" laneChangedFrom="4" laneChangedTo="4"/>
        <edge id="32to30" sampledSeconds="302.86" traveltime="6.71" density="73.51" occupancy="18.38" waitingTime="246.00" speed="1.23" departed="0" arrived="0" entered="29" left="27" laneChangedFrom="0" laneChangedTo="0"/>
        <edge id="32to33" sampledSeconds="48.41" traveltime="1.99" density="3.70" occupancy="0.93" waitingTime="0.00" speed="13.13" departed="0" arrived="21" entered="21" left="0" laneChangedFrom="0" laneChangedTo="0"/>
        <edge id="33to32" sampledSeconds="545.43" traveltime="17.86" density="41.72" occupancy="10.43" waitingTime="356.00" speed="1.46" departed="32" arrived="0" entered="0" left="30" laneChangedFrom="1" laneChangedTo="1"/>
        <edge id="34to31" sampledSeconds="79.41" traveltime="4.91" density="2.49" occupancy="0.41" waitingTime="0.00" speed="13.01" departed="0" arrived="0" entered="15" left="15" laneChangedFrom="3" laneChangedTo="3"/>
        <edge id="34to35" sampledSeconds="1490.38" traveltime="35.92" density="6.86" occupancy="1.72" waitingTime="0.00" speed="12.10" departed="0" arrived="0" entered="47" left="37" laneChangedFrom="19" laneChangedTo="19"/>
        <edge id="35to34" sampledSeconds="493.69" traveltime="32.54" density="2.27" occupancy="0.57" waitingTime="0.00" speed="13.35" departed="0" arrived="0" entered="15" left="15" laneChangedFrom="13" laneChangedTo="13"/>
        <edge id="35to36" sampledSeconds="264.60" traveltime="7.10" density="7.55" occupancy="1.89" waitingTime="0.00" speed="9.86" departed="0" arrived="0" entered="37" left="33" laneChangedFrom="9" laneChangedTo="9"/>
        <edge id="36to35" sampledSeconds="84.23" traveltime="5.24" density="2.41" occupancy="0.60" waitingTime="0.00" speed="13.35" departed="0" arrived="0" entered="15" left="15" laneChangedFrom="0" laneChangedTo="0"/>
        <edge id="36to37" sampledSeconds="162.82" traveltime="4.98" density="5.19" occupancy="1.30" waitingTime="0.00" speed="12.61" departed="0" arrived="0" entered="33" left="29" laneChangedFrom="3" laneChangedTo="3"/>
        <edge id="37to36" sampledSeconds="78.80" traveltime="4.72" density="2.51" occupancy="0.63" waitingTime="0.00" speed="13.31" departed="0" arrived="0" entered="16" left="15" laneChangedFrom="0" laneChangedTo="0"/>
        <edge id="37to38" sampledSeconds="106.12" traveltime="3.46" density="4.60" occupancy="1.15" waitingTime="0.00" speed="13.32" departed="0" arrived="0" entered="29" left="27" laneChangedFrom="0" laneChangedTo="0"/>
        <edge id="38to37" sampledSeconds="64.46" traveltime="3.46" density="2.79" occupancy="0.70" waitingTime="0.00" speed="13.32" departed="0" arrived="0" entered="17" left="16" laneChangedFrom="0" laneChangedTo="0"/>
        <edge id="38to40" sampledSeconds="314.76" traveltime="11.78" density="9.78" occupancy="1.63" waitingTime="168.00" speed="5.46" departed="0" arrived="0" entered="26" left="22" laneChangedFrom="7" laneChangedTo="7"/>
        <edge id="39to28" sampledSeconds="117.44" traveltime="2.75" density="6.40" occupancy="1.60" waitingTime="0.00" speed="13.35" departed="0" arrived="0" entered="38" left="37" laneChangedFrom="3" laneChangedTo="3"/>
        <edge id="39to29" sampledSeconds="2474.00" traveltime="28.09" density="32.73" occupancy="5.45" waitingTime="1189.00" speed="5.38" departed="0" arrived="0" entered="90" left="77" laneChangedFrom="10" laneChangedTo="10"/>
        <edge id="3to17" sampledSeconds="4437.12" traveltime="37.89" density="111.19" occupancy="13.90" waitingTime="2675.72" speed="2.11" departed="119" arrived="0" entered="0" left="114" laneChangedFrom="146" laneChangedTo="146"/>
        <edge id="40to38" sampledSeconds="89.11" traveltime="4.86" density="2.77" occupancy="0.69" waitingTime="0.00" speed="13.24" departed="0" arrived="0" entered="17" left="17" laneChangedFrom="1" laneChangedTo="1"/>
        <edge id="40to41" sampledSeconds="87.71" traveltime="1.94" density="7.55" occupancy="1.26" waitingTime="0.00" speed="11.97" departed="0" arrived="38" entered="38" left="0" laneChangedFrom="0" laneChangedTo="0"/>
        <edge id="40to42" sampledSeconds="363.79" traveltime="17.43" density="6.36" occupancy="1.59" waitingTime="115.00" speed="6.56" departed="0" arrived="0" entered="20" left="20" laneChangedFrom="6" laneChangedTo="6"/>
        <edge id="42to40" sampledSeconds="1510.50" traveltime="22.63" density="26.41" occupancy="3.30" waitingTime="700.00" speed="5.05" departed="0" arrived="0" entered="66" left="56" laneChangedFrom="38" laneChangedTo="38"/>
        <edge id="42to43" sampledSeconds="379.90" traveltime="13.82" density="64.66" occupancy="10.78" waitingTime="305.00" speed="0.85" departed="0" arrived="0" entered="20" left="18" laneChangedFrom="0" laneChangedTo="0"/>
        <edge id="43to42" sampledSeconds="103.67" traveltime="1.11" density="17.65" occupancy="2.94" waitingTime="0.00" speed="10.62" departed="0" arrived="0" entered="66" left="66" laneChangedFrom="11" laneChangedTo="11"/>
        <edge id="43to45" sampledSeconds="186.65" traveltime="1.85" density="15.86" occupancy="3.97" waitingTime="0.00" speed="12.73" departed="0" arrived="84" entered="85" left="0" laneChangedFrom="0" laneChangedTo="0"/>
        <edge id="43to46" sampledSeconds="1131.26" traveltime="30.63" density="7.65" occupancy="1.91" waitingTime="171.00" speed="9.66" departed="0" arrived="0" entered="38" left="34" laneChangedFrom="21" laneChangedTo="21"/>
        <edge id="44to43" sampledSeconds="4559.92" traveltime="52.17" density="347.95" occupancy="34.80" waitingTime="3864.00" speed="0.50" departed="90" arrived="0" entered="0" left="87" laneChangedFrom="179" laneChangedTo="179"/>
        <edge id="45to43" sampledSeconds="1338.44" traveltime="32.43" density="113.76" occupancy="28.44" waitingTime="1074.00" speed="0.73" departed="42" arrived="0" entered="0" left="41" laneChangedFrom="30" laneChangedTo="30"/>
        <edge id="46to43" sampledSeconds="4137.48" traveltime="62.28" density="27.98" occupancy="6.99" waitingTime="2186.00" speed="4.75" departed="0" arrived="0" entered="70" left="46" laneChangedFrom="31" laneChangedTo="31"/>
        <edge id="46to47" sampledSeconds="802.09" traveltime="20.25" density="107.81" occupancy="13.48" waitingTime="640.00" speed="0.73" departed="0" arrived="0" entered="32" left="28" laneChangedFrom="3" laneChangedTo="3"/>
        <edge id="47to46" sampledSeconds="109.04" traveltime="1.17" density="14.66" occupancy="3.66" waitingTime="0.00" speed="12.76" departed="0" arrived="0" entered="70" left="70" laneChangedFrom="1" laneChangedTo="1"/>
        <edge id="47to48" sampledSeconds="439.88" traveltime="4.68" density="14.22" occupancy="3.56" waitingTime="0.00" speed="13.20" departed="0" arrived="88" entered="88" left="0" laneChangedFrom="1" laneChangedTo="1"/>
        <edge id="47to49" sampledSeconds="521.70" traveltime="5.02" density="15.78" occupancy="3.94" waitingTime="0.00" speed="13.19" departed="0" arrived="97" entered="99" left="0" laneChangedFrom="0" laneChangedTo="0"/>
        <edge id="47to50" sampledSeconds="113.67" traveltime="1.46" density="12.39" occupancy="3.10" waitingTime="0.00" speed="12.53" departed="0" arrived="0" entered="61" left="61" laneChangedFrom="5" laneChangedTo="5"/>
        <edge id="48to47" sampledSeconds="5857.28" traveltime="51.77" density="189.40" occupancy="18.94" waitingTime="4362.00" speed="1.19" departed="117" arrived="0" entered="0" left="112" laneChangedFrom="201" laneChangedTo="201"/>
        <edge id="49to47" sampledSeconds="5420.57" traveltime="40.85" density="163.94" occupancy="16.39" waitingTime="3718.00" speed="1.62" departed="135" arrived="0" entered="0" left="129" laneChangedFrom="198" laneChangedTo="198"/>
        <edge id="4to13" sampledSeconds="20.11" traveltime="1.64" density="1.83" occupancy="0.46" waitingTime="0.00" speed="13.44" departed="0" arrived="0" entered="10" left="10" laneChangedFrom="0" laneChangedTo="0"/>
        <edge id="4to16" sampledSeconds="10666.20" traveltime="137.95" density="175.17" occupancy="29.20" waitingTime="8459.00" speed="0.88" departed="0" arrived="0" entered="88" left="63" laneChangedFrom="5" laneChangedTo="5"/>
        <edge id="4to5" sampledSeconds="672.97" traveltime="7.31" density="13.78" occupancy="2.30" waitingTime="0.00" speed="13.35" departed="0" arrived="87" entered="89" left="0" laneChangedFrom="9" laneChangedTo="9"/>
        <edge id="50to47" sampledSeconds="1491.22" traveltime="21.39" density="162.53" occupancy="27.09" waitingTime="1177.00" speed="0.86" departed="0" arrived="0" entered="60" left="51" laneChangedFrom="3" laneChangedTo="3"/>
        <edge id="50to51" sampledSeconds="991.00" traveltime="16.03" density="9.43" occupancy="2.36" waitingTime="2.00" speed="13.11" departed="0" arrived="0" entered="61" left="60" laneChangedFrom="16" laneChangedTo="16"/>
        <edge id="51to50" sampledSeconds="2531.25" traveltime="35.43" density="24.09" occupancy="6.02" waitingTime="1023.00" speed="5.93" departed="0" arrived="0" entered="77" left="60" laneChangedFrom="11" laneChangedTo="11"/>
        <edge id="51to52" sampledSeconds="698.92" traveltime="9.93" density="49.41" occupancy="8.24" waitingTime="426.00" speed="2.85" departed="0" arrived="0" entered="60" left="59" laneChangedFrom="15" laneChangedTo="15"/>
        <edge id="52to51" sampledSeconds="206.20" traveltime="2.28" density="14.58" occupancy="3.64" waitingTime="0.00" speed="12.43" departed="0" arrived="0" entered="77" left="77" laneChangedFrom="0" laneChangedTo="0"/>
        <edge id="52to53" sampledSeconds="135.58" traveltime="4.52" density="4.62" occupancy="2.31" waitingTime="0.00" speed="12.99" departed="0" arrived="28" entered="28" left="0" laneChangedFrom="0" laneChangedTo="0"/>
        <edge id="52to54" sampledSeconds="88.20" traveltime="3.08" density="4.44" occupancy="2.22" waitingTime="0.00" speed="12.90" departed="0" arrived="26" entered="26" left="0" laneChangedFrom="0" laneChangedTo="0"/>
        <edge id="52to55" sampledSeconds="174.67" traveltime="2.63" density="12.08" occupancy="3.02" waitingTime="0.00" speed="11.01" departed="0" arrived="0" entered="57" left="57" laneChangedFrom="3" laneChangedTo="3"/>
        <edge id="53to52" sampledSeconds="1284.71" traveltime="47.98" density="43.80" occupancy="10.95" waitingTime="952.00" speed="1.22" departed="28" arrived="0" entered="0" left="24" laneChangedFrom="1" laneChangedTo="1"/>
        <edge id="54to52" sampledSeconds="1236.74" traveltime="45.32" density="62.30" occupancy="15.58" waitingTime="959.00" speed="0.88" departed="28" arrived="0" entered="0" left="25" laneChangedFrom="3" laneChangedTo="3"/>
        <edge id="55to52" sampledSeconds="643.86" traveltime="6.79" density="44.53" occupancy="7.42" waitingTime="338.00" speed="4.26" departed="0" arrived="0" entered="81" left="80" laneChangedFrom="7" laneChangedTo="7"/>
        <edge id="55to56" sampledSeconds="974.95" traveltime="17.24" density="8.64" occupancy="2.16" waitingTime="0.00" speed="13.09" departed="0" arrived="0" entered="57" left="53" laneChangedFrom="11" laneChangedTo="11"/>
        <edge id="56to55" sampledSeconds="1411.08" traveltime="16.99" density="12.50" occupancy="3.13" waitingTime="0.00" speed="13.29" departed="0" arrived="0" entered="82" left="81" laneChangedFrom="12" laneChangedTo="12"/>
        <edge id="56to57" sampledSeconds="368.43" traveltime="6.30" density="19.58" occupancy="2.45" waitingTime="171.00" speed="5.97" departed="0" arrived="0" entered="53" left="50" laneChangedFrom="7" laneChangedTo="7"/>
        <edge id="57to56" sampledSeconds="267.96" traveltime="2.88" density="14.24" occupancy="3.56" waitingTime="0.00" speed="13.05" departed="0" arrived="0" entered="82" left="82" laneChangedFrom="2" laneChangedTo="2"/>
        <edge id="57to58" sampledSeconds="128.18" traveltime="3.28" density="6.02" occupancy="1.51" waitingTime="0.00" speed="12.99" departed="0" arrived="0" entered="35" left="35" laneChangedFrom="0" laneChangedTo="0"/>
        <edge id="57to60" sampledSeconds="201.21" traveltime="2.85" density="11.03" occupancy="2.76" waitingTime="0.00" speed="12.78" departed="0" arrived="0" entered="62" left="62" laneChangedFrom="0" laneChangedTo="0"/>
        <edge id="57to62" sampledSeconds="410.99" traveltime="4.79" density="13.15" occupancy="3.29" waitingTime="0.00" speed="13.04" departed="0" arrived="0" entered="80" left="79" laneChangedFrom="5" laneChangedTo="5"/>
        <edge id="58to57" sampledSeconds="2403.72" traveltime="39.29" density="112.90" occupancy="18.82" waitingTime="1919.00" speed="1.08" departed="0" arrived="0" entered="58" left="49" laneChangedFrom="21" laneChangedTo="21"/>
        <edge id="58to59" sampledSeconds="151.59" traveltime="4.06" density="5.62" occupancy="1.40" waitingTime="0.00" speed="13.31" departed="0" arrived="35" entered="35" left="0" laneChangedFrom="0" laneChangedTo="0"/>
        <edge id="59to58" sampledSeconds="408.42" traveltime="7.06" density="15.13" occupancy="2.52" waitingTime="0.00" speed="7.64" departed="58" arrived="0" entered="0" left="58" laneChangedFrom="18" laneChangedTo="18"/>
        <edge id="5to4" sampledSeconds="5080.73" traveltime="50.55" density="104.07" occupancy="17.35" waitingTime="3529.00" speed="1.93" departed="113" arrived="0" entered="0" left="90" laneChangedFrom="86" laneChangedTo="86"/>
        <edge id="60to57" sampledSeconds="2290.10" traveltime="32.00" density="125.59" occupancy="20.93" waitingTime="1812.00" speed="1.14" departed="0" arrived="0" entered="68" left="58" laneChangedFrom="12" laneChangedTo="12"/>
        <edge id="60to61" sampledSeconds="224.32" traveltime="3.31" density="10.21" occupancy="2.55" waitingTime="0.00" speed="13.26" departed="0" arrived="62" entered="62" left="0" laneChangedFrom="0" laneChangedTo="0"/>
        <edge id="61to60" sampledSeconds="774.92" traveltime="11.27" density="35.27" occupancy="8.82" waitingTime="267.00" speed="3.90" departed="70" arrived="0" entered="0" left="69" laneChangedFrom="12" laneChangedTo="12"/>
        <edge id="62to57" sampledSeconds="3228.15" traveltime="28.82" density="103.30" occupancy="17.22" waitingTime="2184.00" speed="2.17" departed="0" arrived="0" entered="104" left="102" laneChangedFrom="8" laneChangedTo="8"/>
        <edge id="62to63" sampledSeconds="533.77" traveltime="6.46" density="12.48" occupancy="3.12" waitingTime="0.00" speed="13.24" departed="0" arrived="0" entered="79" left="78" laneChangedFrom="29" laneChangedTo="29"/>
        <edge id="63to62" sampledSeconds="861.81" traveltime="7.83" density="20.15" occupancy="5.04" waitingTime="71.00" speed="10.93" departed="0" arrived="0" entered="104" left="104" laneChangedFrom="15" laneChangedTo="15"/>
        <edge id="63to64" sampledSeconds="439.75" traveltime="4.84" density="32.09" occupancy="5.35" waitingTime="136.00" speed="5.67" departed="0" arrived="0" entered="77" left="77" laneChangedFrom="9" laneChangedTo="9"/>
        <edge id="64to63" sampledSeconds="257.08" traveltime="2.09" density="18.76" occupancy="4.69" waitingTime="0.00" speed="13.11" departed="0" arrived="0" entered="104" left="104" laneChangedFrom="3" laneChangedTo="3"/>
        <edge id="64to65" sampledSeconds="136.85" traveltime="5.38" density="3.99" occupancy="2.00" waitingTime="0.00" speed="12.75" departed="0" arrived="24" entered="25" left="0" laneChangedFrom="0" laneChangedTo="0"/>
        <edge id="64to66" sampledSeconds="11.43" traveltime="1.95" density="0.96" occupancy="0.48" waitingTime="0.00" speed="12.19" departed="0" arrived="5" entered="5" left="0" laneChangedFrom="0" laneChangedTo="0"/>
        <edge id="64to67" sampledSeconds="203.72" traveltime="2.41" density="13.59" occupancy="3.40" waitingTime="0.00" speed="12.46" departed="0" arrived="0" entered="73" left="72" laneChangedFrom="3" laneChangedTo="3"/>
        <edge id="65to64" sampledSeconds="0.00" departed="0" arrived="0" entered="0" left="0" laneChangedFrom="0" laneChangedTo="0"/>
        <edge id="66to64" sampledSeconds="934.14" traveltime="33.76" density="78.47" occupancy="39.23" waitingTime="760.00" speed="0.71" departed="28" arrived="0" entered="0" left="27" laneChangedFrom="0" laneChangedTo="0"/>
        <edge id="67to64" sampledSeconds="320.07" traveltime="2.62" density="21.35" occupancy="3.56" waitingTime="36.00" speed="11.46" departed="0" arrived="0" entered="106" left="104" laneChangedFrom="8" laneChangedTo="8"/>
        <edge id="67to68" sampledSeconds="820.38" traveltime="11.73" density="12.64" occupancy="3.16" waitingTime="95.00" speed="11.06" departed="0" arrived="0" entered="72" left="66" laneChangedFrom="10" laneChangedTo="10"/>
        <edge id="68to67" sampledSeconds="1130.83" traveltime="9.76" density="17.42" occupancy="4.36" waitingTime="0.00" speed="13.31" departed="0" arrived="0" entered="117" left="106" laneChangedFrom="6" laneChangedTo="6"/>
        <edge id="68to69" sampledSeconds="1103.34" traveltime="14.26" density="76.01" occupancy="12.67" waitingTime="780.00" speed="2.04" departed="0" arrived="0" entered="66" left="66" laneChangedFrom="9" laneChangedTo="9"/>
        <edge id="69to68" sampledSeconds="313.69" traveltime="2.26" density="21.61" occupancy="5.40" waitingTime="0.00" speed="12.83" departed="0" arrived="0" entered="119" left="118" laneChangedFrom="0" laneChangedTo="0"/>
        <edge id="69to70" sampledSeconds="132.79" traveltime="3.55" density="5.75" occupancy="2.87" waitingTime="0.00" speed="13.01" departed="0" arrived="34" entered="35" left="0" laneChangedFrom="0" laneChangedTo="0"/>
        <edge id="69to71" sampledSeconds="107.65" traveltime="3.46" density="4.74" occupancy="2.37" waitingTime="0.00" speed="13.13" departed="0" arrived="28" entered="28" left="0" laneChangedFrom="0" laneChangedTo="0"/>
        <edge id="69to72" sampledSeconds="349.95" traveltime="5.30" density="10.15" occupancy="2.54" waitingTime="0.00" speed="13.02" departed="0" arrived="0" entered="63" left="60" laneChangedFrom="1" laneChangedTo="1"/>
        <edge id="6to15" sampledSeconds="297.53" traveltime="11.59" density="7.38" occupancy="0.92" waitingTime="113.00" speed="6.96" departed="0" arrived="0" entered="27" left="22" laneChangedFrom="2" laneChangedTo="2"/>
        <edge id="6to7" sampledSeconds="1294.52" traveltime="6.93" density="28.07" occupancy="7.02" waitingTime="0.00" speed="13.31" departed="0" arrived="0" entered="178" left="176" laneChangedFrom="8" laneChangedTo="8"/>
        <edge id="70to69" sampledSeconds="1054.31" traveltime="37.91" density="45.64" occupancy="11.41" waitingTime="741.00" speed="1.22" departed="28" arrived="0" entered="0" left="27" laneChangedFrom="0" laneChangedTo="0"/>
        <edge id="71to69" sampledSeconds="1042.83" traveltime="37.50" density="45.88" occupancy="11.47" waitingTime="740.00" speed="1.21" departed="28" arrived="0" entered="0" left="27" laneChangedFrom="0" laneChangedTo="0"/>