<?xml version="1.0" encoding="UTF-8"?>

<!-- generated on 3/14/2016 5:09:03 PM by SUMO gui Version 0.24.0
<?xml version="1.0" encoding="UTF-8"?>

<configuration xmlns:xsi="http://www.w3.org/2001/XMLSchema-instance" xsi:noNamespaceSchemaLocation="http://sumo.dlr.de/xsd/sumo-gui.exeConfiguration.xsd">

    <input>
        <net-file value="huntingtonColorado.net.xml"/>
        <route-files value="huntingtonColorado.rou.xml"/>
        <additional-files value="huntingtonColoradoMyAdd.add.xml"/>
    </input>

    <time>
        <begin value="0"/>
        <end value="20000"/>
    </time>

    <processing>
        <time-to-teleport value="-1"/>
    </processing>

</configuration>
-->

<meandata xmlns:xsi="http://www.w3.org/2001/XMLSchema-instance" xsi:noNamespaceSchemaLocation="http://sumo.dlr.de/xsd/meandata_file.xsd">
    <interval begin="0.00" end="500.00" id="id_test1">
        <edge id="10to9" sampledSeconds="14.85" traveltime="0.98" density="2.28" occupancy="0.57" waitingTime="0.00" speed="13.33" departed="0" arrived="0" entered="11" left="11" laneChangedFrom="0" laneChangedTo="0"/>
        <edge id="11to10" sampledSeconds="16.40" traveltime="1.12" density="2.20" occupancy="0.55" waitingTime="0.00" speed="13.33" departed="0" arrived="0" entered="11" left="11" laneChangedFrom="0" laneChangedTo="0"/>
        <edge id="12to11" sampledSeconds="19.84" traveltime="1.43" density="2.07" occupancy="0.52" waitingTime="0.00" speed="13.42" departed="0" arrived="0" entered="11" left="11" laneChangedFrom="0" laneChangedTo="0"/>
        <edge id="13to12" sampledSeconds="18.53" traveltime="1.31" density="2.10" occupancy="0.52" waitingTime="0.00" speed="13.44" departed="0" arrived="0" entered="11" left="11" laneChangedFrom="0" laneChangedTo="0"/>
        <edge id="14to1" sampledSeconds="1130.55" traveltime="2.04" density="897.26" occupancy="89.73" waitingTime="936.00" speed="1.23" departed="0" arrived="0" entered="187" left="185" laneChangedFrom="9" laneChangedTo="9"/>
        <edge id="14to2" sampledSeconds="234.52" traveltime="6.55" density="5.47" occupancy="1.37" waitingTime="0.00" speed="13.09" departed="0" arrived="34" entered="36" left="0" laneChangedFrom="0" laneChangedTo="0"/>
        <edge id="15to1" sampledSeconds="275.73" traveltime="4.03" density="139.61" occupancy="17.45" waitingTime="225.00" speed="0.98" departed="0" arrived="0" entered="31" left="30" laneChangedFrom="0" laneChangedTo="0"/>
        <edge id="15to6" sampledSeconds="1139.58" traveltime="6.16" density="28.16" occupancy="7.04" waitingTime="0.00" speed="13.14" departed="0" arrived="0" entered="176" left="174" laneChangedFrom="11" laneChangedTo="11"/>
        <edge id="16to1" sampledSeconds="1989.36" traveltime="21.77" density="364.35" occupancy="60.73" waitingTime="1727.00" speed="0.50" departed="0" arrived="0" entered="65" left="61" laneChangedFrom="5" laneChangedTo="5"/>
        <edge id="16to4" sampledSeconds="1039.46" traveltime="9.25" density="17.07" occupancy="2.85" waitingTime="0.00" speed="13.16" departed="0" arrived="0" entered="108" left="108" laneChangedFrom="38" laneChangedTo="38"/>
        <edge id="17to1" sampledSeconds="2184.71" traveltime="13.76" density="349.00" occupancy="43.62" waitingTime="1800.00" speed="0.91" departed="0" arrived="0" entered="116" left="111" laneChangedFrom="1" laneChangedTo="1"/>
        <edge id="17to3" sampledSeconds="400.98" traveltime="6.06" density="10.04" occupancy="2.51" waitingTime="0.00" speed="13.19" departed="0" arrived="63" entered="63" left="0" laneChangedFrom="0" laneChangedTo="0"/>
        <edge id="18to19" sampledSeconds="3068.90" traveltime="22.88" density="76.02" occupancy="19.00" waitingTime="1699.00" speed="3.53" departed="0" arrived="0" entered="134" left="116" laneChangedFrom="14" laneChangedTo="14"/>
        <edge id="18to7" sampledSeconds="4316.98" traveltime="97.75" density="6.65" occupancy="1.66" waitingTime="0.00" speed="13.29" departed="0" arrived="0" entered="50" left="41" laneChangedFrom="14" laneChangedTo="14"/>
        <edge id="19to18" sampledSeconds="331.56" traveltime="6.24" density="8.21" occupancy="2.05" waitingTime="0.00" speed="12.93" departed="0" arrived="0" entered="50" left="50" laneChangedFrom="15" laneChangedTo="15"/>
        <edge id="19to20" sampledSeconds="91.19" traveltime="5.42" density="2.58" occupancy="1.29" waitingTime="0.00" speed="13.02" departed="0" arrived="16" entered="16" left="0" laneChangedFrom="0" laneChangedTo="0"/>
        <edge id="19to21" sampledSeconds="1628.86" traveltime="13.23" density="47.18" occupancy="11.79" waitingTime="675.00" speed="5.22" departed="0" arrived="0" entered="115" left="114" laneChangedFrom="10" laneChangedTo="10"/>
        <edge id="1to14" sampledSeconds="25.49" traveltime="0.24" density="20.23" occupancy="5.06" waitingTime="0.00" speed="10.62" departed="0" arrived="0" entered="36" left="36" laneChangedFrom="0" laneChangedTo="0"/>
        <edge id="1to15" sampledSeconds="135.11" traveltime="0.35" density="63.88" occupancy="15.97" waitingTime="0.00" speed="12.02" departed="0" arrived="0" entered="176" left="176" laneChangedFrom="2" laneChangedTo="2"/>
        <edge id="1to16" sampledSeconds="166.38" traveltime="1.06" density="30.47" occupancy="5.08" waitingTime="0.00" speed="10.33" departed="0" arrived="0" entered="109" left="108" laneChangedFrom="4" laneChangedTo="4"/>
        <edge id="1to17" sampledSeconds="100.48" traveltime="1.14" density="15.92" occupancy="3.98" waitingTime="0.00" speed="11.05" departed="0" arrived="0" entered="63" left="63" laneChangedFrom="0" laneChangedTo="0"/>
        <edge id="20to19" sampledSeconds="1213.00" traveltime="43.38" density="34.35" occupancy="17.17" waitingTime="855.00" speed="1.63" departed="28" arrived="0" entered="0" left="28" laneChangedFrom="0" laneChangedTo="0"/>
        <edge id="21to19" sampledSeconds="905.42" traveltime="19.14" density="26.23" occupancy="4.37" waitingTime="544.00" speed="3.61" departed="0" arrived="0" entered="46" left="40" laneChangedFrom="9" laneChangedTo="9"/>
        <edge id="21to22" sampledSeconds="119.29" traveltime="5.62" density="3.27" occupancy="1.64" waitingTime="0.00" speed="12.96" departed="0" arrived="20" entered="20" left="0" laneChangedFrom="0" laneChangedTo="0"/>
        <edge id="21to23" sampledSeconds="1431.23" traveltime="13.12" density="16.57" occupancy="4.14" waitingTime="0.00" speed="13.17" departed="0" arrived="0" entered="106" left="106" laneChangedFrom="14" laneChangedTo="14"/>
        <edge id="22to21" sampledSeconds="1524.42" traveltime="55.62" density="41.84" occupancy="20.92" waitingTime="1148.00" speed="1.31" departed="28" arrived="0" entered="0" left="25" laneChangedFrom="0" laneChangedTo="0"/>
        <edge id="23to21" sampledSeconds="1147.96" traveltime="32.35" density="13.29" occupancy="2.21" waitingTime="592.00" speed="5.34" departed="0" arrived="0" entered="36" left="33" laneChangedFrom="10" laneChangedTo="10"/>
        <edge id="23to24" sampledSeconds="1590.76" traveltime="15.07" density="15.80" occupancy="3.95" waitingTime="0.00" speed="13.36" departed="0" arrived="0" entered="106" left="97" laneChangedFrom="12" laneChangedTo="12"/>
        <edge id="24to23" sampledSeconds="566.30" traveltime="15.07" density="5.62" occupancy="1.41" waitingTime="0.00" speed="13.36" departed="0" arrived="0" entered="37" left="36" laneChangedFrom="5" laneChangedTo="5"/>
        <edge id="24to25" sampledSeconds="655.88" traveltime="6.63" density="14.84" occupancy="3.71" waitingTime="0.00" speed="13.34" departed="0" arrived="0" entered="97" left="91" laneChangedFrom="4" laneChangedTo="4"/>
        <edge id="25to24" sampledSeconds="258.59" traveltime="6.62" density="5.85" occupancy="1.46" waitingTime="0.00" speed="13.35" departed="0" arrived="0" entered="37" left="37" laneChangedFrom="0" laneChangedTo="0"/>
        <edge id="25to26" sampledSeconds="544.26" traveltime="5.66" density="14.61" occupancy="3.65" waitingTime="0.00" speed="13.18" departed="0" arrived="0" entered="91" left="90" laneChangedFrom="11" laneChangedTo="11"/>
        <edge id="26to25" sampledSeconds="220.58" traveltime="5.59" density="5.92" occupancy="1.48" waitingTime="0.00" speed="13.34" departed="0" arrived="0" entered="37" left="37" laneChangedFrom="0" laneChangedTo="0"/>
        <edge id="26to27" sampledSeconds="475.48" traveltime="4.90" density="14.93" occupancy="3.73" waitingTime="0.00" speed="13.00" departed="0" arrived="0" entered="90" left="90" laneChangedFrom="11" laneChangedTo="11"/>
        <edge id="27to26" sampledSeconds="190.15" traveltime="4.77" density="5.97" occupancy="1.49" waitingTime="0.00" speed="13.36" departed="0" arrived="0" entered="37" left="37" laneChangedFrom="2" laneChangedTo="2"/>
        <edge id="27to28" sampledSeconds="323.95" traveltime="3.23" density="15.08" occupancy="3.77" waitingTime="0.00" speed="13.29" departed="0" arrived="0" entered="90" left="89" laneChangedFrom="0" laneChangedTo="0"/>
        <edge id="28to27" sampledSeconds="132.64" traveltime="3.21" density="6.18" occupancy="1.54" waitingTime="0.00" speed="13.38" departed="0" arrived="0" entered="37" left="37" laneChangedFrom="0" laneChangedTo="0"/>
        <edge id="28to39" sampledSeconds="276.72" traveltime="2.75" density="15.08" occupancy="3.77" waitingTime="0.00" speed="13.34" departed="0" arrived="0" entered="89" left="88" laneChangedFrom="1" laneChangedTo="1"/>
        <edge id="29to30" sampledSeconds="2512.28" traveltime="27.63" density="146.92" occupancy="24.49" waitingTime="2072.00" speed="1.24" departed="0" arrived="0" entered="82" left="77" laneChangedFrom="6" laneChangedTo="6"/>
        <edge id="29to39" sampledSeconds="444.48" traveltime="11.33" density="5.88" occupancy="1.47" waitingTime="0.00" speed="13.34" departed="0" arrived="0" entered="38" left="38" laneChangedFrom="0" laneChangedTo="0"/>
        <edge id="2to14" sampledSeconds="6978.75" traveltime="35.38" density="162.67" occupancy="16.27" waitingTime="3945.00" speed="2.43" departed="208" arrived="0" entered="0" left="188" laneChangedFrom="278" laneChangedTo="278"/>
        <edge id="30to29" sampledSeconds="116.78" traveltime="2.63" density="6.85" occupancy="1.71" waitingTime="0.00" speed="12.95" departed="0" arrived="0" entered="39" left="38" laneChangedFrom="1" laneChangedTo="1"/>
        <edge id="30to31" sampledSeconds="116.57" traveltime="1.50" density="11.86" occupancy="2.97" waitingTime="0.00" speed="13.11" departed="0" arrived="0" entered="62" left="62" laneChangedFrom="0" laneChangedTo="0"/>
        <edge id="30to32" sampledSeconds="18.12" traveltime="0.70" density="4.40" occupancy="1.10" waitingTime="0.00" speed="11.69" departed="0" arrived="0" entered="16" left="16" laneChangedFrom="0" laneChangedTo="0"/>
        <edge id="31to30" sampledSeconds="107.98" traveltime="6.61" density="11.11" occupancy="1.85" waitingTime="70.00" speed="2.94" departed="0" arrived="0" entered="13" left="13" laneChangedFrom="0" laneChangedTo="0"/>
        <edge id="31to34" sampledSeconds="315.47" traveltime="4.78" density="9.85" occupancy="2.46" waitingTime="0.00" speed="13.39" departed="0" arrived="0" entered="62" left="60" laneChangedFrom="6" laneChangedTo="6"/>
        <edge id="32to30" sampledSeconds="294.69" traveltime="6.66" density="71.53" occupancy="17.88" waitingTime="234.00" speed="1.24" departed="0" arrived="0" entered="28" left="27" laneChangedFrom="0" laneChangedTo="0"/>
        <edge id="32to33" sampledSeconds="36.68" traveltime="2.00" density="2.81" occupancy="0.70" waitingTime="0.00" speed="13.09" departed="0" arrived="16" entered="16" left="0" laneChangedFrom="0" laneChangedTo="0"/>
        <edge id="33to32" sampledSeconds="559.23" traveltime="18.74" density="42.77" occupancy="10.69" waitingTime="364.00" speed="1.40" departed="32" arrived="0" entered="0" left="29" laneChangedFrom="1" laneChangedTo="1"/>
        <edge id="34to31" sampledSeconds="71.03" traveltime="4.80" density="2.22" occupancy="0.37" waitingTime="0.00" speed="13.31" departed="0" arrived="0" entered="14" left="13" laneChangedFrom="2" laneChangedTo="2"/>
        <edge id="34to35" sampledSeconds="1861.23" traveltime="36.61" density="8.57" occupancy="2.14" waitingTime="0.00" speed="11.87" departed="0" arrived="0" entered="60" left="42" laneChangedFrom="17" laneChangedTo="17"/>
        <edge id="35to34" sampledSeconds="460.82" traveltime="32.54" density="2.12" occupancy="0.53" waitingTime="0.00" speed="13.35" departed="0" arrived="0" entered="14" left="14" laneChangedFrom="13" laneChangedTo="13"/>
        <edge id="35to36" sampledSeconds="278.84" traveltime="6.75" density="7.96" occupancy="1.99" waitingTime="0.00" speed="10.37" departed="0" arrived="0" entered="42" left="36" laneChangedFrom="6" laneChangedTo="6"/>
        <edge id="36to35" sampledSeconds="80.13" traveltime="5.23" density="2.29" occupancy="0.57" waitingTime="0.00" speed="13.37" departed="0" arrived="0" entered="15" left="14" laneChangedFrom="0" laneChangedTo="0"/>
        <edge id="36to37" sampledSeconds="209.46" traveltime="5.67" density="6.67" occupancy="1.67" waitingTime="0.00" speed="11.07" departed="0" arrived="0" entered="36" left="33" laneChangedFrom="5" laneChangedTo="5"/>
        <edge id="37to36" sampledSeconds="78.17" traveltime="4.70" density="2.49" occupancy="0.62" waitingTime="0.00" speed="13.36" departed="0" arrived="0" entered="16" left="15" laneChangedFrom="0" laneChangedTo="0"/>
        <edge id="37to38" sampledSeconds="123.84" traveltime="3.49" density="5.37" occupancy="1.34" waitingTime="0.00" speed="13.21" departed="0" arrived="0" entered="33" left="31" laneChangedFrom="0" laneChangedTo="0"/>
        <edge id="38to37" sampledSeconds="61.63" traveltime="3.48" density="2.67" occupancy="0.67" waitingTime="0.00" speed="13.27" departed="0" arrived="0" entered="16" left="16" laneChangedFrom="1" laneChangedTo="1"/>
        <edge id="38to40" sampledSeconds="575.19" traveltime="18.44" density="17.87" occupancy="2.98" waitingTime="378.00" speed="3.49" departed="0" arrived="0" entered="31" left="25" laneChangedFrom="8" laneChangedTo="8"/>
        <edge id="39to28" sampledSeconds="115.33" traveltime="2.74" density="6.28" occupancy="1.57" waitingTime="0.00" speed="13.38" departed="0" arrived="0" entered="37" left="37" laneChangedFrom="2" laneChangedTo="2"/>
        <edge id="39to29" sampledSeconds="2592.24" traveltime="29.19" density="34.29" occupancy="5.72" waitingTime="1307.00" speed="5.18" departed="0" arrived="0" entered="88" left="82" laneChangedFrom="8" laneChangedTo="8"/>
        <edge id="3to17" sampledSeconds="4157.66" traveltime="35.43" density="104.19" occupancy="13.02" waitingTime="2557.05" speed="2.25" departed="119" arrived="0" entered="0" left="116" laneChangedFrom="147" laneChangedTo="147"/>
        <edge id="40to38" sampledSeconds="84.31" traveltime="4.89" density="2.62" occupancy="0.65" waitingTime="0.00" speed="13.17" departed="0" arrived="0" entered="16" left="16" laneChangedFrom="1" laneChangedTo="1"/>
        <edge id="40to41" sampledSeconds="83.39" traveltime="1.93" density="7.18" occupancy="1.20" waitingTime="0.00" speed="12.06" departed="0" arrived="37" entered="37" left="0" laneChangedFrom="2" laneChangedTo="2"/>
        <edge id="40to42" sampledSeconds="492.39" traveltime="19.73" density="8.61" occupancy="2.15" waitingTime="193.00" speed="5.80" departed="0" arrived="0" entered="24" left="22" laneChangedFrom="6" laneChangedTo="6"/>
        <edge id="42to40" sampledSeconds="1536.31" traveltime="23.66" density="26.86" occupancy="3.36" waitingTime="738.00" speed="4.83" departed="0" arrived="0" entered="64" left="52" laneChangedFrom="36" laneChangedTo="36"/>
        <edge id="42to43" sampledSeconds="361.49" traveltime="12.89" density="61.53" occupancy="10.25" waitingTime="285.00" speed="0.91" departed="0" arrived="0" entered="22" left="18" laneChangedFrom="1" laneChangedTo="1"/>
        <edge id="43to42" sampledSeconds="98.20" traveltime="1.08" density="16.71" occupancy="2.79" waitingTime="0.00" speed="10.92" departed="0" arrived="0" entered="64" left="64" laneChangedFrom="13" laneChangedTo="13"/>
        <edge id="43to45" sampledSeconds="225.13" traveltime="1.85" density="19.14" occupancy="4.78" waitingTime="0.00" speed="12.74" departed="0" arrived="103" entered="104" left="0" laneChangedFrom="0" laneChangedTo="0"/>
        <edge id="43to46" sampledSeconds="1315.42" traveltime="31.48" density="8.90" occupancy="2.22" waitingTime="200.00" speed="9.39" departed="0" arrived="0" entered="42" left="41" laneChangedFrom="12" laneChangedTo="12"/>
        <edge id="44to43" sampledSeconds="4016.27" traveltime="34.73" density="306.47" occupancy="30.65" waitingTime="3131.00" speed="0.75" departed="120" arrived="0" entered="0" left="112" laneChangedFrom="239" laneChangedTo="239"/>
        <edge id="45to43" sampledSeconds="1343.71" traveltime="32.68" density="114.21" occupancy="28.55" waitingTime="1071.00" speed="0.72" departed="42" arrived="0" entered="0" left="41" laneChangedFrom="26" laneChangedTo="26"/>
        <edge id="46to43" sampledSeconds="3463.30" traveltime="56.21" density="23.42" occupancy="5.86" waitingTime="1559.00" speed="5.26" departed="0" arrived="0" entered="65" left="41" laneChangedFrom="25" laneChangedTo="25"/>
        <edge id="46to47" sampledSeconds="783.10" traveltime="15.40" density="105.25" occupancy="13.16" waitingTime="614.00" speed="0.97" departed="0" arrived="0" entered="41" left="35" laneChangedFrom="5" laneChangedTo="5"/>
        <edge id="47to46" sampledSeconds="102.19" traveltime="1.18" density="13.74" occupancy="3.43" waitingTime="0.00" speed="12.64" departed="0" arrived="0" entered="65" left="65" laneChangedFrom="1" laneChangedTo="1"/>
        <edge id="47to48" sampledSeconds="453.26" traveltime="4.67" density="14.66" occupancy="3.66" waitingTime="0.00" speed="13.25" departed="0" arrived="90" entered="91" left="0" laneChangedFrom="0" laneChangedTo="0"/>
        <edge id="47to49" sampledSeconds="574.62" traveltime="5.03" density="17.38" occupancy="4.34" waitingTime="0.00" speed="13.14" departed="0" arrived="106" entered="111" left="0" laneChangedFrom="0" laneChangedTo="0"/>
        <edge id="47to50" sampledSeconds="119.90" traveltime="1.45" density="13.07" occupancy="3.27" waitingTime="0.00" speed="12.66" departed="0" arrived="0" entered="65" left="65" laneChangedFrom="1" laneChangedTo="1"/>
        <edge id="48to47" sampledSeconds="5826.11" traveltime="46.94" density="188.39" occupancy="18.84" waitingTime="4167.00" speed="1.32" departed="126" arrived="0" entered="0" left="122" laneChangedFrom="208" laneChangedTo="208"/>
        <edge id="49to47" sampledSeconds="6142.17" traveltime="46.64" density="185.76" occupancy="18.58" waitingTime="4451.00" speed="1.42" departed="135" arrived="0" entered="0" left="128" laneChangedFrom="198" laneChangedTo="198"/>
        <edge id="4to13" sampledSeconds="22.31" traveltime="1.65" density="2.03" occupancy="0.51" waitingTime="0.00" speed="13.32" departed="0" arrived="0" entered="11" left="11" laneChangedFrom="0" laneChangedTo="0"/>
        <edge id="4to16" sampledSeconds="9433.71" traveltime="115.37" density="154.93" occupancy="25.82" waitingTime="7173.00" speed="1.06" departed="0" arrived="0" entered="93" left="65" laneChangedFrom="3" laneChangedTo="3"/>
        <edge id="4to5" sampledSeconds="738.26" traveltime="7.32" density="15.12" occupancy="2.52" waitingTime="0.00" speed="13.34" departed="0" arrived="97" entered="97" left="0" laneChangedFrom="12" laneChangedTo="12"/>
        <edge id="50to47" sampledSeconds="1297.16" traveltime="18.36" density="141.38" occupancy="23.56" waitingTime="1021.00" speed="1.00" departed="0" arrived="0" entered="59" left="53" laneChangedFrom="1" laneChangedTo="1"/>
        <edge id="50to51" sampledSeconds="1058.80" traveltime="16.17" density="10.08" occupancy="2.52" waitingTime="0.00" speed="13.00" departed="0" arrived="0" entered="65" left="64" laneChangedFrom="20" laneChangedTo="20"/>
        <edge id="51to50" sampledSeconds="2286.75" traveltime="32.63" density="21.77" occupancy="5.44" waitingTime="841.00" speed="6.44" departed="0" arrived="0" entered="76" left="59" laneChangedFrom="10" laneChangedTo="10"/>
        <edge id="51to52" sampledSeconds="654.51" traveltime="8.88" density="46.27" occupancy="7.71" waitingTime="388.00" speed="3.19" departed="0" arrived="0" entered="64" left="61" laneChangedFrom="12" laneChangedTo="12"/>
        <edge id="52to51" sampledSeconds="199.25" traveltime="2.21" density="14.09" occupancy="3.52" waitingTime="0.00" speed="12.82" departed="0" arrived="0" entered="78" left="76" laneChangedFrom="3" laneChangedTo="3"/>
        <edge id="52to53" sampledSeconds="96.36" traveltime="4.53" density="3.29" occupancy="1.64" waitingTime="0.00" speed="12.96" departed="0" arrived="20" entered="20" left="0" laneChangedFrom="0" laneChangedTo="0"/>
        <edge id="52to54" sampledSeconds="68.53" traveltime="3.08" density="3.45" occupancy="1.73" waitingTime="0.00" speed="12.88" departed="0" arrived="20" entered="20" left="0" laneChangedFrom="0" laneChangedTo="0"/>
        <edge id="52to55" sampledSeconds="207.90" traveltime="2.74" density="14.38" occupancy="3.59" waitingTime="0.00" speed="10.54" departed="0" arrived="0" entered="65" left="65" laneChangedFrom="10" laneChangedTo="10"/>
        <edge id="53to52" sampledSeconds="1190.31" traveltime="43.62" density="40.58" occupancy="10.15" waitingTime="867.00" speed="1.34" departed="28" arrived="0" entered="0" left="24" laneChangedFrom="5" laneChangedTo="5"/>
        <edge id="54to52" sampledSeconds="1218.75" traveltime="45.29" density="61.40" occupancy="15.35" waitingTime="944.00" speed="0.88" departed="28" arrived="0" entered="0" left="25" laneChangedFrom="3" laneChangedTo="3"/>
        <edge id="55to52" sampledSeconds="329.17" traveltime="3.79" density="22.76" occupancy="3.79" waitingTime="111.00" speed="7.63" departed="0" arrived="0" entered="74" left="74" laneChangedFrom="2" laneChangedTo="2"/>
        <edge id="55to56" sampledSeconds="1121.13" traveltime="17.39" density="9.93" occupancy="2.48" waitingTime="0.00" speed="12.98" departed="0" arrived="0" entered="65" left="61" laneChangedFrom="11" laneChangedTo="11"/>
        <edge id="56to55" sampledSeconds="1345.41" traveltime="17.56" density="11.92" occupancy="2.98" waitingTime="0.00" speed="12.85" departed="0" arrived="0" entered="75" left="74" laneChangedFrom="8" laneChangedTo="8"/>
        <edge id="56to57" sampledSeconds="570.27" traveltime="8.35" density="30.30" occupancy="3.79" waitingTime="317.00" speed="4.51" departed="0" arrived="0" entered="61" left="60" laneChangedFrom="11" laneChangedTo="11"/>
        <edge id="57to56" sampledSeconds="247.68" traveltime="2.92" density="13.16" occupancy="3.29" waitingTime="0.00" speed="12.90" departed="0" arrived="0" entered="75" left="75" laneChangedFrom="3" laneChangedTo="3"/>
        <edge id="57to58" sampledSeconds="128.42" traveltime="3.28" density="6.03" occupancy="1.51" waitingTime="0.00" speed="12.97" departed="0" arrived="0" entered="35" left="35" laneChangedFrom="0" laneChangedTo="0"/>
        <edge id="57to60" sampledSeconds="204.35" traveltime="2.85" density="11.21" occupancy="2.80" waitingTime="0.00" speed="12.79" departed="0" arrived="0" entered="63" left="63" laneChangedFrom="0" laneChangedTo="0"/>
        <edge id="57to62" sampledSeconds="451.09" traveltime="4.79" density="14.43" occupancy="3.61" waitingTime="0.00" speed="13.04" departed="0" arrived="0" entered="88" left="86" laneChangedFrom="7" laneChangedTo="7"/>
        <edge id="58to57" sampledSeconds="2337.57" traveltime="38.16" density="109.80" occupancy="18.30" waitingTime="1845.00" speed="1.12" departed="0" arrived="0" entered="58" left="50" laneChangedFrom="21" laneChangedTo="21"/>
        <edge id="58to59" sampledSeconds="151.41" traveltime="4.04" density="5.61" occupancy="1.40" waitingTime="0.00" speed="13.37" departed="0" arrived="35" entered="35" left="0" laneChangedFrom="0" laneChangedTo="0"/>
        <edge id="59to58" sampledSeconds="416.09" traveltime="7.19" density="15.42" occupancy="2.57" waitingTime="0.00" speed="7.50" departed="58" arrived="0" entered="0" left="58" laneChangedFrom="14" laneChangedTo="14"/>
        <edge id="5to4" sampledSeconds="4620.61" traveltime="43.45" density="94.65" occupancy="15.77" waitingTime="2946.00" speed="2.25" departed="119" arrived="0" entered="0" left="96" laneChangedFrom="81" laneChangedTo="81"/>
        <edge id="60to57" sampledSeconds="2350.08" traveltime="32.89" density="128.88" occupancy="21.48" waitingTime="1886.00" speed="1.11" departed="0" arrived="0" entered="68" left="58" laneChangedFrom="12" laneChangedTo="12"/>
        <edge id="60to61" sampledSeconds="227.83" traveltime="3.30" density="10.37" occupancy="2.59" waitingTime="0.00" speed="13.32" departed="0" arrived="63" entered="63" left="0" laneChangedFrom="0" laneChangedTo="0"/>
        <edge id="61to60" sampledSeconds="714.29" traveltime="10.39" density="32.51" occupancy="8.13" waitingTime="207.00" speed="4.23" departed="70" arrived="0" entered="0" left="69" laneChangedFrom="14" laneChangedTo="14"/>
        <edge id="62to57" sampledSeconds="3254.40" traveltime="31.59" density="104.14" occupancy="17.36" waitingTime="2265.00" speed="1.98" departed="0" arrived="0" entered="96" left="93" laneChangedFrom="3" laneChangedTo="3"/>
        <edge id="62to63" sampledSeconds="581.50" traveltime="6.52" density="13.59" occupancy="3.40" waitingTime="0.00" speed="13.12" departed="0" arrived="0" entered="86" left="83" laneChangedFrom="21" laneChangedTo="21"/>
        <edge id="63to62" sampledSeconds="757.60" traveltime="7.46" density="17.71" occupancy="4.43" waitingTime="30.00" speed="11.47" departed="0" arrived="0" entered="96" left="96" laneChangedFrom="17" laneChangedTo="17"/>
        <edge id="63to64" sampledSeconds="524.02" traveltime="5.44" density="38.24" occupancy="6.37" waitingTime="181.00" speed="5.04" departed="0" arrived="0" entered="83" left="81" laneChangedFrom="14" laneChangedTo="14"/>
        <edge id="64to63" sampledSeconds="239.24" traveltime="2.11" density="17.46" occupancy="4.36" waitingTime="0.00" speed="13.00" departed="0" arrived="0" entered="96" left="96" laneChangedFrom="6" laneChangedTo="6"/>
        <edge id="64to65" sampledSeconds="164.70" traveltime="5.38" density="4.81" occupancy="2.40" waitingTime="0.00" speed="12.75" departed="0" arrived="29" entered="29" left="0" laneChangedFrom="0" laneChangedTo="0"/>
        <edge id="64to66" sampledSeconds="10.77" traveltime="1.85" density="0.90" occupancy="0.45" waitingTime="0.00" speed="12.87" departed="0" arrived="5" entered="5" left="0" laneChangedFrom="0" laneChangedTo="0"/>
        <edge id="64to67" sampledSeconds="202.20" traveltime="2.41" density="13.49" occupancy="3.37" waitingTime="0.00" speed="12.46" departed="0" arrived="0" entered="74" left="71" laneChangedFrom="1" laneChangedTo="1"/>
        <edge id="65to64" sampledSeconds="0.00" departed="0" arrived="0" entered="0" left="0" laneChangedFrom="0" laneChangedTo="0"/>
        <edge id="66to64" sampledSeconds="873.23" traveltime="31.60" density="73.35" occupancy="36.67" waitingTime="703.00" speed="0.75" departed="28" arrived="0" entered="0" left="27" laneChangedFrom="0" laneChangedTo="0"/>
        <edge id="67to64" sampledSeconds="306.14" traveltime="2.66" density="20.42" occupancy="3.40" waitingTime="38.00" speed="11.27" departed="0" arrived="0" entered="99" left="98" laneChangedFrom="5" laneChangedTo="5"/>
        <edge id="67to68" sampledSeconds="695.60" traveltime="9.92" density="10.72" occupancy="2.68" waitingTime="2.00" speed="13.08" departed="0" arrived="0" entered="71" left="66" laneChangedFrom="8" laneChangedTo="8"/>
        <edge id="68to67" sampledSeconds="1070.83" traveltime="9.80" density="16.50" occupancy="4.12" waitingTime="0.00" speed="13.24" departed="0" arrived="0" entered="111" left="100" laneChangedFrom="10" laneChangedTo="10"/>
        <edge id="68to69" sampledSeconds="1072.85" traveltime="13.88" density="73.91" occupancy="12.32" waitingTime="765.00" speed="2.09" departed="0" arrived="0" entered="66" left="66" laneChangedFrom="8" laneChangedTo="8"/>
        <edge id="69to68" sampledSeconds="297.53" traveltime="2.26" density="20.50" occupancy="5.12" waitingTime="0.00" speed="12.82" departed="0" arrived="0" entered="113" left="111" laneChangedFrom="2" laneChangedTo="2"/>
        <edge id="69to70" sampledSeconds="145.69" traveltime="3.52" density="6.31" occupancy="3.15" waitingTime="0.00" speed="13.13" departed="0" arrived="38" entered="38" left="0" laneChangedFrom="0" laneChangedTo="0"/>
        <edge id="69to71" sampledSeconds="110.23" traveltime="3.48" density="4.85" occupancy="2.42" waitingTime="0.00" speed="13.06" departed="0" arrived="29" entered="29" left="0" laneChangedFrom="0" laneChangedTo="0"/>
        <edge id="69to72" sampledSeconds="355.77" traveltime="5.27" density="10.32" occupancy="2.58" waitingTime="0.00" speed="13.09" departed="0" arrived="0" entered="63" left="63" laneChangedFrom="2" laneChangedTo="2"/>
        <edge id="6to15" sampledSeconds="883.32" traveltime="24.37" density="21.91" occupancy="2.74" waitingTime="549.00" speed="3.31" departed="0" arrived="0" entered="37" left="31" laneChangedFrom="6" laneChangedTo="6"/>
        <edge id="6to7" sampledSeconds="1271.62" traveltime="6.94" density="27.58" occupancy="6.89" waitingTime="0.00" speed="13.30" departed="0" arrived="0" entered="174" left="173" laneChangedFrom="6" laneChangedTo="6"/>
        <edge id="70to69" sampledSeconds="1043.59" traveltime="37.50" density="45.18" occupancy="11.29" waitingTime="731.00" speed="1.23" departed="28" arrived="0" entered="0" left="27" laneChangedFrom="0" laneChangedTo="0"/>
        <edge id="71to69" sampledSeconds="1074.46" traveltime="38.64" density="47.27" occupancy="11.82" waitingTime="756.00" speed="1.18" departed="28" arrived="0" entered="0" left="27" laneChangedFrom="0" laneChangedTo="0"/>