<?xml version="1.0" encoding="UTF-8"?>

<!-- generated on 3/15/2016 11:49:15 AM by SUMO gui Version 0.24.0
<?xml version="1.0" encoding="UTF-8"?>

<configuration xmlns:xsi="http://www.w3.org/2001/XMLSchema-instance" xsi:noNamespaceSchemaLocation="http://sumo.dlr.de/xsd/sumo-gui.exeConfiguration.xsd">

    <input>
        <net-file value="C:\Users\Xavier\Dropbox\Courses\Fall\ME%20199%20-%20Final%20Year%20Project\Sumo%20Projects\Simple%20Intersection2\intersection2Test.net.xml"/>
        <route-files value="C:\Users\Xavier\Dropbox\Courses\Fall\ME%20199%20-%20Final%20Year%20Project\Sumo%20Projects\Simple%20Intersection2\intersection2Test2.rou.xml"/>
    </input>

    <output>
        <tripinfo-output value="tripinfo.xml"/>
        <save-state.prefix value="C:\Users\Xavier\Dropbox\Courses\Fall\ME%20199%20-%20Final%20Year%20Project\Sumo%20Projects\Simple%20Intersection2\state"/>
    </output>

    <time>
        <begin value="0"/>
        <end value="10000"/>
    </time>

    <processing>
        <time-to-teleport value="-1"/>
    </processing>

    <emissions>
        <phemlight-path value="C:\Users\Xavier\Dropbox\Courses\Fall\ME%20199%20-%20Final%20Year%20Project\Sumo%20Projects\Simple%20Intersection2\./PHEMlight/"/>
    </emissions>

    <traci_server>
        <remote-port value="8873"/>
    </traci_server>

</configuration>
-->

<tripinfos xmlns:xsi="http://www.w3.org/2001/XMLSchema-instance" xsi:noNamespaceSchemaLocation="http://sumo.dlr.de/xsd/tripinfo_file.xsd">
    <tripinfo id="type0.0" depart="0.00" departLane="D2_0" departPos="5.10" departSpeed="0.00" departDelay="0.00" arrival="79.00" arrivalLane="D7_0" arrivalPos="100.00" arrivalSpeed="13.49" duration="79.00" routeLength="995.32" waitSteps="0" timeLoss="7.67" rerouteNo="0" devices="tripinfo_type0.0" vType="DEFAULT_VEHTYPE" vaporized=""/>
    <tripinfo id="type0.1" depart="72.00" departLane="D2_0" departPos="5.10" departSpeed="0.00" departDelay="0.00" arrival="152.00" arrivalLane="D7_0" arrivalPos="100.00" arrivalSpeed="12.78" duration="80.00" routeLength="995.32" waitSteps="0" timeLoss="8.38" rerouteNo="0" devices="tripinfo_type0.1" vType="DEFAULT_VEHTYPE" vaporized=""/>
    <tripinfo id="type0.2" depart="144.00" departLane="D2_0" departPos="5.10" departSpeed="0.00" departDelay="0.00" arrival="223.00" arrivalLane="D6_0" arrivalPos="100.00" arrivalSpeed="13.96" duration="79.00" routeLength="985.42" waitSteps="0" timeLoss="8.08" rerouteNo="0" devices="tripinfo_type0.2" vType="DEFAULT_VEHTYPE" vaporized=""/>
    <tripinfo id="type0.3" depart="216.00" departLane="D2_0" departPos="5.10" departSpeed="0.00" departDelay="0.00" arrival="295.00" arrivalLane="D6_0" arrivalPos="100.00" arrivalSpeed="13.71" duration="79.00" routeLength="985.42" waitSteps="0" timeLoss="8.52" rerouteNo="0" devices="tripinfo_type0.3" vType="DEFAULT_VEHTYPE" vaporized=""/>
    <tripinfo id="type0.4" depart="288.00" departLane="D2_0" departPos="5.10" departSpeed="0.00" departDelay="0.00" arrival="367.00" arrivalLane="D6_0" arrivalPos="100.00" arrivalSpeed="13.91" duration="79.00" routeLength="985.42" waitSteps="0" timeLoss="8.39" rerouteNo="0" devices="tripinfo_type0.4" vType="DEFAULT_VEHTYPE" vaporized=""/>
    <tripinfo id="type0.5" depart="360.00" departLane="D2_0" departPos="5.10" departSpeed="0.00" departDelay="0.00" arrival="439.00" arrivalLane="D6_0" arrivalPos="100.00" arrivalSpeed="13.96" duration="79.00" routeLength="985.42" waitSteps="0" timeLoss="7.85" rerouteNo="0" devices="tripinfo_type0.5" vType="DEFAULT_VEHTYPE" vaporized=""/>
    <tripinfo id="type0.6" depart="432.00" departLane="D2_0" departPos="5.10" departSpeed="0.00" departDelay="0.00" arrival="512.00" arrivalLane="D7_0" arrivalPos="100.00" arrivalSpeed="13.93" duration="80.00" routeLength="995.32" waitSteps="0" timeLoss="8.86" rerouteNo="0" devices="tripinfo_type0.6" vType="DEFAULT_VEHTYPE" vaporized=""/>
    <tripinfo id="type0.7" depart="504.00" departLane="D2_0" departPos="5.10" departSpeed="0.00" departDelay="0.00" arrival="582.00" arrivalLane="D6_0" arrivalPos="100.00" arrivalSpeed="12.73" duration="78.00" routeLength="985.42" waitSteps="0" timeLoss="7.48" rerouteNo="0" devices="tripinfo_type0.7" vType="DEFAULT_VEHTYPE" vaporized=""/>
    <tripinfo id="type0.8" depart="576.00" departLane="D2_0" departPos="5.10" departSpeed="0.00" departDelay="0.00" arrival="655.00" arrivalLane="D7_0" arrivalPos="100.00" arrivalSpeed="12.78" duration="79.00" routeLength="995.32" waitSteps="0" timeLoss="7.55" rerouteNo="0" devices="tripinfo_type0.8" vType="DEFAULT_VEHTYPE" vaporized=""/>
    <tripinfo id="type0.9" depart="648.00" departLane="D2_0" departPos="5.10" departSpeed="0.00" departDelay="0.00" arrival="728.00" arrivalLane="D7_0" arrivalPos="100.00" arrivalSpeed="13.76" duration="80.00" routeLength="995.32" waitSteps="0" timeLoss="7.99" rerouteNo="0" devices="tripinfo_type0.9" vType="DEFAULT_VEHTYPE" vaporized=""/>
    <tripinfo id="type0.10" depart="720.00" departLane="D2_0" departPos="5.10" departSpeed="0.00" departDelay="0.00" arrival="800.00" arrivalLane="D7_0" arrivalPos="100.00" arrivalSpeed="13.02" duration="80.00" routeLength="995.32" waitSteps="0" timeLoss="8.02" rerouteNo="0" devices="tripinfo_type0.10" vType="DEFAULT_VEHTYPE" vaporized=""/>
    <tripinfo id="type0.11" depart="792.00" departLane="D2_0" departPos="5.10" departSpeed="0.00" departDelay="0.00" arrival="871.00" arrivalLane="D6_0" arrivalPos="100.00" arrivalSpeed="13.75" duration="79.00" routeLength="985.42" waitSteps="0" timeLoss="7.79" rerouteNo="0" devices="tripinfo_type0.11" vType="DEFAULT_VEHTYPE" vaporized=""/>
    <tripinfo id="type0.12" depart="864.00" departLane="D2_0" departPos="5.10" departSpeed="0.00" departDelay="0.00" arrival="943.00" arrivalLane="D6_0" arrivalPos="100.00" arrivalSpeed="12.85" duration="79.00" routeLength="985.42" waitSteps="0" timeLoss="7.82" rerouteNo="0" devices="tripinfo_type0.12" vType="DEFAULT_VEHTYPE" vaporized=""/>
    <tripinfo id="type0.13" depart="936.00" departLane="D2_0" departPos="5.10" departSpeed="0.00" departDelay="0.00" arrival="1015.00" arrivalLane="D6_0" arrivalPos="100.00" arrivalSpeed="13.73" duration="79.00" routeLength="985.42" waitSteps="0" timeLoss="8.04" rerouteNo="0" devices="tripinfo_type0.13" vType="DEFAULT_VEHTYPE" vaporized=""/>
    <tripinfo id="type0.14" depart="1008.00" departLane="D2_0" departPos="5.10" departSpeed="0.00" departDelay="0.00" arrival="1088.00" arrivalLane="D6_0" arrivalPos="100.00" arrivalSpeed="12.90" duration="80.00" routeLength="985.42" waitSteps="0" timeLoss="9.25" rerouteNo="0" devices="tripinfo_type0.14" vType="DEFAULT_VEHTYPE" vaporized=""/>
    <tripinfo id="type0.15" depart="1080.00" departLane="D2_0" departPos="5.10" departSpeed="0.00" departDelay="0.00" arrival="1159.00" arrivalLane="D6_0" arrivalPos="100.00" arrivalSpeed="13.43" duration="79.00" routeLength="985.42" waitSteps="0" timeLoss="7.73" rerouteNo="0" devices="tripinfo_type0.15" vType="DEFAULT_VEHTYPE" vaporized=""/>
    <tripinfo id="type0.16" depart="1152.00" departLane="D2_0" departPos="5.10" departSpeed="0.00" departDelay="0.00" arrival="1232.00" arrivalLane="D7_0" arrivalPos="100.00" arrivalSpeed="13.55" duration="80.00" routeLength="995.32" waitSteps="0" timeLoss="8.18" rerouteNo="0" devices="tripinfo_type0.16" vType="DEFAULT_VEHTYPE" vaporized=""/>
    <tripinfo id="type0.17" depart="1224.00" departLane="D2_0" departPos="5.10" departSpeed="0.00" departDelay="0.00" arrival="1302.00" arrivalLane="D7_0" arrivalPos="100.00" arrivalSpeed="13.63" duration="78.00" routeLength="995.32" waitSteps="0" timeLoss="6.34" rerouteNo="0" devices="tripinfo_type0.17" vType="DEFAULT_VEHTYPE" vaporized=""/>
    <tripinfo id="type0.18" depart="1296.00" departLane="D2_0" departPos="5.10" departSpeed="0.00" departDelay="0.00" arrival="1376.00" arrivalLane="D6_0" arrivalPos="100.00" arrivalSpeed="12.93" duration="80.00" routeLength="985.42" waitSteps="0" timeLoss="8.68" rerouteNo="0" devices="tripinfo_type0.18" vType="DEFAULT_VEHTYPE" vaporized=""/>
    <tripinfo id="type0.19" depart="1368.00" departLane="D2_0" departPos="5.10" departSpeed="0.00" departDelay="0.00" arrival="1447.00" arrivalLane="D6_0" arrivalPos="100.00" arrivalSpeed="12.86" duration="79.00" routeLength="985.42" waitSteps="0" timeLoss="8.36" rerouteNo="0" devices="tripinfo_type0.19" vType="DEFAULT_VEHTYPE" vaporized=""/>
    <tripinfo id="type0.20" depart="1440.00" departLane="D2_0" departPos="5.10" departSpeed="0.00" departDelay="0.00" arrival="1520.00" arrivalLane="D7_0" arrivalPos="100.00" arrivalSpeed="14.00" duration="80.00" routeLength="995.32" waitSteps="0" timeLoss="8.17" rerouteNo="0" devices="tripinfo_type0.20" vType="DEFAULT_VEHTYPE" vaporized=""/>
    <tripinfo id="type0.21" depart="1512.00" departLane="D2_0" departPos="5.10" departSpeed="0.00" departDelay="0.00" arrival="1591.00" arrivalLane="D6_0" arrivalPos="100.00" arrivalSpeed="13.38" duration="79.00" routeLength="985.42" waitSteps="0" timeLoss="7.99" rerouteNo="0" devices="tripinfo_type0.21" vType="DEFAULT_VEHTYPE" vaporized=""/>
    <tripinfo id="type0.22" depart="1584.00" departLane="D2_0" departPos="5.10" departSpeed="0.00" departDelay="0.00" arrival="1663.00" arrivalLane="D6_0" arrivalPos="100.00" arrivalSpeed="13.30" duration="79.00" routeLength="985.42" waitSteps="0" timeLoss="7.75" rerouteNo="0" devices="tripinfo_type0.22" vType="DEFAULT_VEHTYPE" vaporized=""/>
    <tripinfo id="type0.23" depart="1656.00" departLane="D2_0" departPos="5.10" departSpeed="0.00" departDelay="0.00" arrival="1735.00" arrivalLane="D6_0" arrivalPos="100.00" arrivalSpeed="13.89" duration="79.00" routeLength="985.42" waitSteps="0" timeLoss="8.39" rerouteNo="0" devices="tripinfo_type0.23" vType="DEFAULT_VEHTYPE" vaporized=""/>
    <tripinfo id="type0.24" depart="1728.00" departLane="D2_0" departPos="5.10" departSpeed="0.00" departDelay="0.00" arrival="1807.00" arrivalLane="D7_0" arrivalPos="100.00" arrivalSpeed="13.77" duration="79.00" routeLength="995.32" waitSteps="0" timeLoss="7.66" rerouteNo="0" devices="tripinfo_type0.24" vType="DEFAULT_VEHTYPE" vaporized=""/>
    <tripinfo id="type0.25" depart="1800.00" departLane="D2_0" departPos="5.10" departSpeed="0.00" departDelay="0.00" arrival="1879.00" arrivalLane="D6_0" arrivalPos="100.00" arrivalSpeed="13.95" duration="79.00" routeLength="985.42" waitSteps="0" timeLoss="7.62" rerouteNo="0" devices="tripinfo_type0.25" vType="DEFAULT_VEHTYPE" vaporized=""/>
    <tripinfo id="type0.26" depart="1872.00" departLane="D2_0" departPos="5.10" departSpeed="0.00" departDelay="0.00" arrival="1949.00" arrivalLane="D6_0" arrivalPos="100.00" arrivalSpeed="13.26" duration="77.00" routeLength="985.42" waitSteps="0" timeLoss="6.54" rerouteNo="0" devices="tripinfo_type0.26" vType="DEFAULT_VEHTYPE" vaporized=""/>
    <tripinfo id="type0.27" depart="1944.00" departLane="D2_0" departPos="5.10" departSpeed="0.00" departDelay="0.00" arrival="2023.00" arrivalLane="D7_0" arrivalPos="100.00" arrivalSpeed="13.86" duration="79.00" routeLength="995.32" waitSteps="0" timeLoss="7.78" rerouteNo="0" devices="tripinfo_type0.27" vType="DEFAULT_VEHTYPE" vaporized=""/>
    <tripinfo id="type0.28" depart="2016.00" departLane="D2_0" departPos="5.10" departSpeed="0.00" departDelay="0.00" arrival="2096.00" arrivalLane="D6_0" arrivalPos="100.00" arrivalSpeed="12.92" duration="80.00" routeLength="985.42" waitSteps="0" timeLoss="9.01" rerouteNo="0" devices="tripinfo_type0.28" vType="DEFAULT_VEHTYPE" vaporized=""/>
    <tripinfo id="type0.29" depart="2088.00" departLane="D2_0" departPos="5.10" departSpeed="0.00" departDelay="0.00" arrival="2167.00" arrivalLane="D7_0" arrivalPos="100.00" arrivalSpeed="13.39" duration="79.00" routeLength="995.32" waitSteps="0" timeLoss="7.73" rerouteNo="0" devices="tripinfo_type0.29" vType="DEFAULT_VEHTYPE" vaporized=""/>
    <tripinfo id="type0.30" depart="2160.00" departLane="D2_0" departPos="5.10" departSpeed="0.00" departDelay="0.00" arrival="2240.00" arrivalLane="D7_0" arrivalPos="100.00" arrivalSpeed="13.65" duration="80.00" routeLength="995.32" waitSteps="0" timeLoss="8.35" rerouteNo="0" devices="tripinfo_type0.30" vType="DEFAULT_VEHTYPE" vaporized=""/>
    <tripinfo id="type0.31" depart="2232.00" departLane="D2_0" departPos="5.10" departSpeed="0.00" departDelay="0.00" arrival="2312.00" arrivalLane="D6_0" arrivalPos="100.00" arrivalSpeed="13.45" duration="80.00" routeLength="985.42" waitSteps="0" timeLoss="9.17" rerouteNo="0" devices="tripinfo_type0.31" vType="DEFAULT_VEHTYPE" vaporized=""/>
    <tripinfo id="type0.32" depart="2304.00" departLane="D2_0" departPos="5.10" departSpeed="0.00" departDelay="0.00" arrival="2383.00" arrivalLane="D7_0" arrivalPos="100.00" arrivalSpeed="13.47" duration="79.00" routeLength="995.32" waitSteps="0" timeLoss="7.52" rerouteNo="0" devices="tripinfo_type0.32" vType="DEFAULT_VEHTYPE" vaporized=""/>
    <tripinfo id="type0.33" depart="2376.00" departLane="D2_0" departPos="5.10" departSpeed="0.00" departDelay="0.00" arrival="2457.00" arrivalLane="D7_0" arrivalPos="100.00" arrivalSpeed="13.76" duration="81.00" routeLength="995.32" waitSteps="0" timeLoss="9.31" rerouteNo="0" devices="tripinfo_type0.33" vType="DEFAULT_VEHTYPE" vaporized=""/>
    <tripinfo id="type0.34" depart="2448.00" departLane="D2_0" departPos="5.10" departSpeed="0.00" departDelay="0.00" arrival="2528.00" arrivalLane="D7_0" arrivalPos="100.00" arrivalSpeed="13.37" duration="80.00" routeLength="995.32" waitSteps="0" timeLoss="8.31" rerouteNo="0" devices="tripinfo_type0.34" vType="DEFAULT_VEHTYPE" vaporized=""/>
    <tripinfo id="type0.35" depart="2520.00" departLane="D2_0" departPos="5.10" departSpeed="0.00" departDelay="0.00" arrival="2598.00" arrivalLane="D6_0" arrivalPos="100.00" arrivalSpeed="13.87" duration="78.00" routeLength="985.42" waitSteps="0" timeLoss="7.33" rerouteNo="0" devices="tripinfo_type0.35" vType="DEFAULT_VEHTYPE" vaporized=""/>
    <tripinfo id="type0.36" depart="2592.00" departLane="D2_0" departPos="5.10" departSpeed="0.00" departDelay="0.00" arrival="2670.00" arrivalLane="D6_0" arrivalPos="100.00" arrivalSpeed="13.77" duration="78.00" routeLength="985.42" waitSteps="0" timeLoss="7.50" rerouteNo="0" devices="tripinfo_type0.36" vType="DEFAULT_VEHTYPE" vaporized=""/>
    <tripinfo id="type0.37" depart="2664.00" departLane="D2_0" departPos="5.10" departSpeed="0.00" departDelay="0.00" arrival="2742.00" arrivalLane="D7_0" arrivalPos="100.00" arrivalSpeed="13.43" duration="78.00" routeLength="995.32" waitSteps="0" timeLoss="6.34" rerouteNo="0" devices="tripinfo_type0.37" vType="DEFAULT_VEHTYPE" vaporized=""/>
    <tripinfo id="type0.38" depart="2736.00" departLane="D2_0" departPos="5.10" departSpeed="0.00" departDelay="0.00" arrival="2814.00" arrivalLane="D6_0" arrivalPos="100.00" arrivalSpeed="13.37" duration="78.00" routeLength="985.42" waitSteps="0" timeLoss="7.56" rerouteNo="0" devices="tripinfo_type0.38" vType="DEFAULT_VEHTYPE" vaporized=""/>
    <tripinfo id="type0.39" depart="2808.00" departLane="D2_0" departPos="5.10" departSpeed="0.00" departDelay="0.00" arrival="2887.00" arrivalLane="D7_0" arrivalPos="100.00" arrivalSpeed="13.94" duration="79.00" routeLength="995.32" waitSteps="0" timeLoss="7.75" rerouteNo="0" devices="tripinfo_type0.39" vType="DEFAULT_VEHTYPE" vaporized=""/>
    <tripinfo id="type0.40" depart="2880.00" departLane="D2_0" departPos="5.10" departSpeed="0.00" departDelay="0.00" arrival="2959.00" arrivalLane="D6_0" arrivalPos="100.00" arrivalSpeed="13.93" duration="79.00" routeLength="985.42" waitSteps="0" timeLoss="7.58" rerouteNo="0" devices="tripinfo_type0.40" vType="DEFAULT_VEHTYPE" vaporized=""/>
    <tripinfo id="type0.41" depart="2952.00" departLane="D2_0" departPos="5.10" departSpeed="0.00" departDelay="0.00" arrival="3032.00" arrivalLane="D7_0" arrivalPos="100.00" arrivalSpeed="13.76" duration="80.00" routeLength="995.32" waitSteps="0" timeLoss="8.20" rerouteNo="0" devices="tripinfo_type0.41" vType="DEFAULT_VEHTYPE" vaporized=""/>
    <tripinfo id="type0.42" depart="3024.00" departLane="D2_0" departPos="5.10" departSpeed="0.00" departDelay="0.00" arrival="3103.00" arrivalLane="D7_0" arrivalPos="100.00" arrivalSpeed="12.73" duration="79.00" routeLength="995.32" waitSteps="0" timeLoss="7.41" rerouteNo="0" devices="tripinfo_type0.42" vType="DEFAULT_VEHTYPE" vaporized=""/>
    <tripinfo id="type0.43" depart="3096.00" departLane="D2_0" departPos="5.10" departSpeed="0.00" departDelay="0.00" arrival="3177.00" arrivalLane="D6_0" arrivalPos="100.00" arrivalSpeed="12.87" duration="81.00" routeLength="985.42" waitSteps="0" timeLoss="9.77" rerouteNo="0" devices="tripinfo_type0.43" vType="DEFAULT_VEHTYPE" vaporized=""/>
    <tripinfo id="type0.44" depart="3168.00" departLane="D2_0" departPos="5.10" departSpeed="0.00" departDelay="0.00" arrival="3247.00" arrivalLane="D6_0" arrivalPos="100.00" arrivalSpeed="12.78" duration="79.00" routeLength="985.42" waitSteps="0" timeLoss="8.11" rerouteNo="0" devices="tripinfo_type0.44" vType="DEFAULT_VEHTYPE" vaporized=""/>
    <tripinfo id="type0.45" depart="3240.00" departLane="D2_0" departPos="5.10" departSpeed="0.00" departDelay="0.00" arrival="3319.00" arrivalLane="D7_0" arrivalPos="100.00" arrivalSpeed="13.37" duration="79.00" routeLength="995.32" waitSteps="0" timeLoss="7.82" rerouteNo="0" devices="tripinfo_type0.45" vType="DEFAULT_VEHTYPE" vaporized=""/>
    <tripinfo id="type0.46" depart="3312.00" departLane="D2_0" departPos="5.10" departSpeed="0.00" departDelay="0.00" arrival="3392.00" arrivalLane="D7_0" arrivalPos="100.00" arrivalSpeed="13.58" duration="80.00" routeLength="995.32" waitSteps="0" timeLoss="8.14" rerouteNo="0" devices="tripinfo_type0.46" vType="DEFAULT_VEHTYPE" vaporized=""/>
    <tripinfo id="type0.47" depart="3384.00" departLane="D2_0" departPos="5.10" departSpeed="0.00" departDelay="0.00" arrival="3464.00" arrivalLane="D7_0" arrivalPos="100.00" arrivalSpeed="13.00" duration="80.00" routeLength="995.32" waitSteps="0" timeLoss="8.06" rerouteNo="0" devices="tripinfo_type0.47" vType="DEFAULT_VEHTYPE" vaporized=""/>
    <tripinfo id="type0.48" depart="3456.00" departLane="D2_0" departPos="5.10" departSpeed="0.00" departDelay="0.00" arrival="3536.00" arrivalLane="D7_0" arrivalPos="100.00" arrivalSpeed="13.39" duration="80.00" routeLength="995.32" waitSteps="0" timeLoss="8.86" rerouteNo="0" devices="tripinfo_type0.48" vType="DEFAULT_VEHTYPE" vaporized=""/>
    <tripinfo id="type0.49" depart="3528.00" departLane="D2_0" departPos="5.10" departSpeed="0.00" departDelay="0.00" arrival="3607.00" arrivalLane="D6_0" arrivalPos="100.00" arrivalSpeed="12.87" duration="79.00" routeLength="985.42" waitSteps="0" timeLoss="8.12" rerouteNo="0" devices="tripinfo_type0.49" vType="DEFAULT_VEHTYPE" vaporized=""/>
    <tripinfo id="type0.50" depart="3600.00" departLane="D2_0" departPos="5.10" departSpeed="0.00" departDelay="0.00" arrival="3679.00" arrivalLane="D6_0" arrivalPos="100.00" arrivalSpeed="13.43" duration="79.00" routeLength="985.42" waitSteps="0" timeLoss="8.05" rerouteNo="0" devices="tripinfo_type0.50" vType="DEFAULT_VEHTYPE" vaporized=""/>
    <tripinfo id="type0.51" depart="3672.00" departLane="D2_0" departPos="5.10" departSpeed="0.00" departDelay="0.00" arrival="3752.00" arrivalLane="D7_0" arrivalPos="100.00" arrivalSpeed="12.89" duration="80.00" routeLength="995.32" waitSteps="0" timeLoss="8.04" rerouteNo="0" devices="tripinfo_type0.51" vType="DEFAULT_VEHTYPE" vaporized=""/>
    <tripinfo id="type0.52" depart="3744.00" departLane="D2_0" departPos="5.10" departSpeed="0.00" departDelay="0.00" arrival="3823.00" arrivalLane="D6_0" arrivalPos="100.00" arrivalSpeed="13.86" duration="79.00" routeLength="985.42" waitSteps="0" timeLoss="7.75" rerouteNo="0" devices="tripinfo_type0.52" vType="DEFAULT_VEHTYPE" vaporized=""/>
    <tripinfo id="type0.53" depart="3816.00" departLane="D2_0" departPos="5.10" departSpeed="0.00" departDelay="0.00" arrival="3895.00" arrivalLane="D6_0" arrivalPos="100.00" arrivalSpeed="12.82" duration="79.00" routeLength="985.42" waitSteps="0" timeLoss="7.95" rerouteNo="0" devices="tripinfo_type0.53" vType="DEFAULT_VEHTYPE" vaporized=""/>
    <tripinfo id="type0.54" depart="3888.00" departLane="D2_0" departPos="5.10" departSpeed="0.00" departDelay="0.00" arrival="3967.00" arrivalLane="D6_0" arrivalPos="100.00" arrivalSpeed="13.67" duration="79.00" routeLength="985.42" waitSteps="0" timeLoss="8.25" rerouteNo="0" devices="tripinfo_type0.54" vType="DEFAULT_VEHTYPE" vaporized=""/>
    <tripinfo id="type0.55" depart="3960.00" departLane="D2_0" departPos="5.10" departSpeed="0.00" departDelay="0.00" arrival="4040.00" arrivalLane="D7_0" arrivalPos="100.00" arrivalSpeed="13.97" duration="80.00" routeLength="995.32" waitSteps="0" timeLoss="8.01" rerouteNo="0" devices="tripinfo_type0.55" vType="DEFAULT_VEHTYPE" vaporized=""/>
    <tripinfo id="type0.56" depart="4032.00" departLane="D2_0" departPos="5.10" departSpeed="0.00" departDelay="0.00" arrival="4112.00" arrivalLane="D7_0" arrivalPos="100.00" arrivalSpeed="13.59" duration="80.00" routeLength="995.32" waitSteps="0" timeLoss="8.17" rerouteNo="0" devices="tripinfo_type0.56" vType="DEFAULT_VEHTYPE" vaporized=""/>
    <tripinfo id="type0.57" depart="4104.00" departLane="D2_0" departPos="5.10" departSpeed="0.00" departDelay="0.00" arrival="4183.00" arrivalLane="D6_0" arrivalPos="100.00" arrivalSpeed="13.12" duration="79.00" routeLength="985.42" waitSteps="0" timeLoss="8.02" rerouteNo="0" devices="tripinfo_type0.57" vType="DEFAULT_VEHTYPE" vaporized=""/>
    <tripinfo id="type0.58" depart="4176.00" departLane="D2_0" departPos="5.10" departSpeed="0.00" departDelay="0.00" arrival="4256.00" arrivalLane="D7_0" arrivalPos="100.00" arrivalSpeed="12.78" duration="80.00" routeLength="995.32" waitSteps="0" timeLoss="8.49" rerouteNo="0" devices="tripinfo_type0.58" vType="DEFAULT_VEHTYPE" vaporized=""/>
    <tripinfo id="type0.59" depart="4248.00" departLane="D2_0" departPos="5.10" departSpeed="0.00" departDelay="0.00" arrival="4328.00" arrivalLane="D7_0" arrivalPos="100.00" arrivalSpeed="13.83" duration="80.00" routeLength="995.32" waitSteps="0" timeLoss="8.70" rerouteNo="0" devices="tripinfo_type0.59" vType="DEFAULT_VEHTYPE" vaporized=""/>
    <tripinfo id="type0.60" depart="4320.00" departLane="D2_0" departPos="5.10" departSpeed="0.00" departDelay="0.00" arrival="4399.00" arrivalLane="D6_0" arrivalPos="100.00" arrivalSpeed="13.09" duration="79.00" routeLength="985.42" waitSteps="0" timeLoss="8.22" rerouteNo="0" devices="tripinfo_type0.60" vType="DEFAULT_VEHTYPE" vaporized=""/>
    <tripinfo id="type0.61" depart="4392.00" departLane="D2_0" departPos="5.10" departSpeed="0.00" departDelay="0.00" arrival="4471.00" arrivalLane="D6_0" arrivalPos="100.00" arrivalSpeed="13.00" duration="79.00" routeLength="985.42" waitSteps="0" timeLoss="7.95" rerouteNo="0" devices="tripinfo_type0.61" vType="DEFAULT_VEHTYPE" vaporized=""/>
    <tripinfo id="type0.62" depart="4464.00" departLane="D2_0" departPos="5.10" departSpeed="0.00" departDelay="0.00" arrival="4542.00" arrivalLane="D6_0" arrivalPos="100.00" arrivalSpeed="13.60" duration="78.00" routeLength="985.42" waitSteps="0" timeLoss="7.35" rerouteNo="0" devices="tripinfo_type0.62" vType="DEFAULT_VEHTYPE" vaporized=""/>
    <tripinfo id="type0.63" depart="4536.00" departLane="D2_0" departPos="5.10" departSpeed="0.00" departDelay="0.00" arrival="4615.00" arrivalLane="D6_0" arrivalPos="100.00" arrivalSpeed="13.87" duration="79.00" routeLength="985.42" waitSteps="0" timeLoss="7.66" rerouteNo="0" devices="tripinfo_type0.63" vType="DEFAULT_VEHTYPE" vaporized=""/>
    <tripinfo id="type0.64" depart="4608.00" departLane="D2_0" departPos="5.10" departSpeed="0.00" departDelay="0.00" arrival="4687.00" arrivalLane="D6_0" arrivalPos="100.00" arrivalSpeed="12.78" duration="79.00" routeLength="985.42" waitSteps="0" timeLoss="7.81" rerouteNo="0" devices="tripinfo_type0.64" vType="DEFAULT_VEHTYPE" vaporized=""/>
    <tripinfo id="type0.65" depart="4680.00" departLane="D2_0" departPos="5.10" departSpeed="0.00" departDelay="0.00" arrival="4759.00" arrivalLane="D6_0" arrivalPos="100.00" arrivalSpeed="13.07" duration="79.00" routeLength="985.42" waitSteps="0" timeLoss="8.01" rerouteNo="0" devices="tripinfo_type0.65" vType="DEFAULT_VEHTYPE" vaporized=""/>
    <tripinfo id="type0.66" depart="4752.00" departLane="D2_0" departPos="5.10" departSpeed="0.00" departDelay="0.00" arrival="4831.00" arrivalLane="D7_0" arrivalPos="100.00" arrivalSpeed="13.81" duration="79.00" routeLength="995.32" waitSteps="0" timeLoss="7.53" rerouteNo="0" devices="tripinfo_type0.66" vType="DEFAULT_VEHTYPE" vaporized=""/>
    <tripinfo id="type0.67" depart="4824.00" departLane="D2_0" departPos="5.10" departSpeed="0.00" departDelay="0.00" arrival="4904.00" arrivalLane="D7_0" arrivalPos="100.00" arrivalSpeed="12.75" duration="80.00" routeLength="995.32" waitSteps="0" timeLoss="8.49" rerouteNo="0" devices="tripinfo_type0.67" vType="DEFAULT_VEHTYPE" vaporized=""/>
    <tripinfo id="type0.68" depart="4896.00" departLane="D2_0" departPos="5.10" departSpeed="0.00" departDelay="0.00" arrival="4977.00" arrivalLane="D7_0" arrivalPos="100.00" arrivalSpeed="12.74" duration="81.00" routeLength="995.32" waitSteps="0" timeLoss="9.14" rerouteNo="0" devices="tripinfo_type0.68" vType="DEFAULT_VEHTYPE" vaporized=""/>
    <tripinfo id="type0.69" depart="4968.00" departLane="D2_0" departPos="5.10" departSpeed="0.00" departDelay="0.00" arrival="5047.00" arrivalLane="D6_0" arrivalPos="100.00" arrivalSpeed="13.72" duration="79.00" routeLength="985.42" waitSteps="0" timeLoss="7.65" rerouteNo="0" devices="tripinfo_type0.69" vType="DEFAULT_VEHTYPE" vaporized=""/>
    <tripinfo id="type0.70" depart="5040.00" departLane="D2_0" departPos="5.10" departSpeed="0.00" departDelay="0.00" arrival="5119.00" arrivalLane="D6_0" arrivalPos="100.00" arrivalSpeed="13.29" duration="79.00" routeLength="985.42" waitSteps="0" timeLoss="8.15" rerouteNo="0" devices="tripinfo_type0.70" vType="DEFAULT_VEHTYPE" vaporized=""/>
    <tripinfo id="type0.71" depart="5112.00" departLane="D2_0" departPos="5.10" departSpeed="0.00" departDelay="0.00" arrival="5191.00" arrivalLane="D7_0" arrivalPos="100.00" arrivalSpeed="13.82" duration="79.00" routeLength="995.32" waitSteps="0" timeLoss="7.44" rerouteNo="0" devices="tripinfo_type0.71" vType="DEFAULT_VEHTYPE" vaporized=""/>
    <tripinfo id="type0.72" depart="5184.00" departLane="D2_0" departPos="5.10" departSpeed="0.00" departDelay="0.00" arrival="5264.00" arrivalLane="D7_0" arrivalPos="100.00" arrivalSpeed="13.07" duration="80.00" routeLength="995.32" waitSteps="0" timeLoss="7.96" rerouteNo="0" devices="tripinfo_type0.72" vType="DEFAULT_VEHTYPE" vaporized=""/>
    <tripinfo id="type0.73" depart="5256.00" departLane="D2_0" departPos="5.10" departSpeed="0.00" departDelay="0.00" arrival="5336.00" arrivalLane="D7_0" arrivalPos="100.00" arrivalSpeed="13.99" duration="80.00" routeLength="995.32" waitSteps="0" timeLoss="8.52" rerouteNo="0" devices="tripinfo_type0.73" vType="DEFAULT_VEHTYPE" vaporized=""/>
    <tripinfo id="type0.74" depart="5328.00" departLane="D2_0" departPos="5.10" departSpeed="0.00" departDelay="0.00" arrival="5407.00" arrivalLane="D6_0" arrivalPos="100.00" arrivalSpeed="13.78" duration="79.00" routeLength="985.42" waitSteps="0" timeLoss="7.79" rerouteNo="0" devices="tripinfo_type0.74" vType="DEFAULT_VEHTYPE" vaporized=""/>
    <tripinfo id="type0.75" depart="5400.00" departLane="D2_0" departPos="5.10" departSpeed="0.00" departDelay="0.00" arrival="5479.00" arrivalLane="D7_0" arrivalPos="100.00" arrivalSpeed="13.68" duration="79.00" routeLength="995.32" waitSteps="0" timeLoss="7.68" rerouteNo="0" devices="tripinfo_type0.75" vType="DEFAULT_VEHTYPE" vaporized=""/>
    <tripinfo id="type0.76" depart="5472.00" departLane="D2_0" departPos="5.10" departSpeed="0.00" departDelay="0.00" arrival="5553.00" arrivalLane="D6_0" arrivalPos="100.00" arrivalSpeed="12.80" duration="81.00" routeLength="985.42" waitSteps="0" timeLoss="9.70" rerouteNo="0" devices="tripinfo_type0.76" vType="DEFAULT_VEHTYPE" vaporized=""/>
    <tripinfo id="type0.77" depart="5544.00" departLane="D2_0" departPos="5.10" departSpeed="0.00" departDelay="0.00" arrival="5625.00" arrivalLane="D6_0" arrivalPos="100.00" arrivalSpeed="13.88" duration="81.00" routeLength="985.42" waitSteps="0" timeLoss="9.68" rerouteNo="0" devices="tripinfo_type0.77" vType="DEFAULT_VEHTYPE" vaporized=""/>
    <tripinfo id="type0.78" depart="5616.00" departLane="D2_0" departPos="5.10" departSpeed="0.00" departDelay="0.00" arrival="5695.00" arrivalLane="D7_0" arrivalPos="100.00" arrivalSpeed="12.76" duration="79.00" routeLength="995.32" waitSteps="0" timeLoss="7.72" rerouteNo="0" devices="tripinfo_type0.78" vType="DEFAULT_VEHTYPE" vaporized=""/>
    <tripinfo id="type0.79" depart="5688.00" departLane="D2_0" departPos="5.10" departSpeed="0.00" departDelay="0.00" arrival="5767.00" arrivalLane="D7_0" arrivalPos="100.00" arrivalSpeed="12.93" duration="79.00" routeLength="995.32" waitSteps="0" timeLoss="7.81" rerouteNo="0" devices="tripinfo_type0.79" vType="DEFAULT_VEHTYPE" vaporized=""/>
    <tripinfo id="type0.80" depart="5760.00" departLane="D2_0" departPos="5.10" departSpeed="0.00" departDelay="0.00" arrival="5839.00" arrivalLane="D6_0" arrivalPos="100.00" arrivalSpeed="13.15" duration="79.00" routeLength="985.42" waitSteps="0" timeLoss="7.86" rerouteNo="0" devices="tripinfo_type0.80" vType="DEFAULT_VEHTYPE" vaporized=""/>
    <tripinfo id="type0.81" depart="5832.00" departLane="D2_0" departPos="5.10" departSpeed="0.00" departDelay="0.00" arrival="5910.00" arrivalLane="D6_0" arrivalPos="100.00" arrivalSpeed="13.57" duration="78.00" routeLength="985.42" waitSteps="0" timeLoss="7.44" rerouteNo="0" devices="tripinfo_type0.81" vType="DEFAULT_VEHTYPE" vaporized=""/>