<?xml version="1.0" encoding="UTF-8"?>

<!-- generated on 4/20/2016 11:13:39 AM by SUMO gui Version 0.24.0
<?xml version="1.0" encoding="UTF-8"?>

<configuration xmlns:xsi="http://www.w3.org/2001/XMLSchema-instance" xsi:noNamespaceSchemaLocation="http://sumo.dlr.de/xsd/sumo-gui.exeConfiguration.xsd">

    <input>
        <net-file value="C:\Users\Xavier\Dropbox\Courses\Fall\ME%20199%20-%20Final%20Year%20Project\Sumo%20Projects\Huntington%20Colorado\Version%204\huntingtonColorado.net.xml"/>
        <route-files value="C:\Users\Xavier\Dropbox\Courses\Fall\ME%20199%20-%20Final%20Year%20Project\Sumo%20Projects\Huntington%20Colorado\Version%204\huntingtonColorado_exp.rou.xml"/>
        <additional-files value="C:\Users\Xavier\Dropbox\Courses\Fall\ME%20199%20-%20Final%20Year%20Project\Sumo%20Projects\Huntington%20Colorado\Version%204\huntingtonColoradoMyAdd.add.xml"/>
    </input>

    <output>
        <tripinfo-output value="tripinfo.xml"/>
        <save-state.prefix value="C:\Users\Xavier\Dropbox\Courses\Fall\ME%20199%20-%20Final%20Year%20Project\Sumo%20Projects\Huntington%20Colorado\Version%204\state"/>
    </output>

    <time>
        <begin value="0"/>
    </time>

    <processing>
        <time-to-teleport value="-1"/>
    </processing>

    <emissions>
        <phemlight-path value="C:\Users\Xavier\Dropbox\Courses\Fall\ME%20199%20-%20Final%20Year%20Project\Sumo%20Projects\Huntington%20Colorado\Version%204\./PHEMlight/"/>
    </emissions>

    <traci_server>
        <remote-port value="8873"/>
    </traci_server>

</configuration>
-->

<meandata xmlns:xsi="http://www.w3.org/2001/XMLSchema-instance" xsi:noNamespaceSchemaLocation="http://sumo.dlr.de/xsd/meandata_file.xsd">
</meandata>
