<?xml version="1.0" encoding="UTF-8"?>

<!-- generated on 3/14/2016 5:58:34 PM by SUMO gui Version 0.24.0
<?xml version="1.0" encoding="UTF-8"?>

<configuration xmlns:xsi="http://www.w3.org/2001/XMLSchema-instance" xsi:noNamespaceSchemaLocation="http://sumo.dlr.de/xsd/sumo-gui.exeConfiguration.xsd">

    <input>
        <net-file value="huntingtonColorado.net.xml"/>
        <route-files value="huntingtonColorado.rou.xml"/>
        <additional-files value="huntingtonColoradoMyAdd.add.xml"/>
    </input>

    <time>
        <begin value="0"/>
        <end value="20000"/>
    </time>

    <processing>
        <time-to-teleport value="-1"/>
    </processing>

</configuration>
-->

<meandata xmlns:xsi="http://www.w3.org/2001/XMLSchema-instance" xsi:noNamespaceSchemaLocation="http://sumo.dlr.de/xsd/meandata_file.xsd">
    <interval begin="0.00" end="500.00" id="id_test1">
        <edge id="10to9" sampledSeconds="12.12" traveltime="0.97" density="1.87" occupancy="0.47" waitingTime="0.00" speed="13.36" departed="0" arrived="0" entered="9" left="9" laneChangedFrom="0" laneChangedTo="0"/>
        <edge id="11to10" sampledSeconds="13.54" traveltime="1.13" density="1.82" occupancy="0.45" waitingTime="0.00" speed="13.22" departed="0" arrived="0" entered="9" left="9" laneChangedFrom="0" laneChangedTo="0"/>
        <edge id="12to11" sampledSeconds="16.47" traveltime="1.45" density="1.71" occupancy="0.43" waitingTime="0.00" speed="13.23" departed="0" arrived="0" entered="9" left="9" laneChangedFrom="0" laneChangedTo="0"/>
        <edge id="13to12" sampledSeconds="15.28" traveltime="1.32" density="1.73" occupancy="0.43" waitingTime="0.00" speed="13.34" departed="0" arrived="0" entered="9" left="9" laneChangedFrom="0" laneChangedTo="0"/>
        <edge id="14to1" sampledSeconds="1264.23" traveltime="2.28" density="1003.36" occupancy="100.34" waitingTime="1045.00" speed="1.11" departed="0" arrived="0" entered="188" left="186" laneChangedFrom="11" laneChangedTo="11"/>
        <edge id="14to2" sampledSeconds="315.10" traveltime="6.51" density="7.35" occupancy="1.84" waitingTime="0.00" speed="13.18" departed="0" arrived="46" entered="48" left="0" laneChangedFrom="0" laneChangedTo="0"/>
        <edge id="15to1" sampledSeconds="235.99" traveltime="3.84" density="119.49" occupancy="14.94" waitingTime="191.00" speed="1.03" departed="0" arrived="0" entered="28" left="27" laneChangedFrom="0" laneChangedTo="0"/>
        <edge id="15to6" sampledSeconds="1163.27" traveltime="6.18" density="28.75" occupancy="7.19" waitingTime="0.00" speed="13.09" departed="0" arrived="0" entered="179" left="177" laneChangedFrom="16" laneChangedTo="16"/>
        <edge id="16to1" sampledSeconds="2016.79" traveltime="17.39" density="369.38" occupancy="61.56" waitingTime="1735.00" speed="0.63" departed="0" arrived="0" entered="83" left="77" laneChangedFrom="2" laneChangedTo="2"/>
        <edge id="16to4" sampledSeconds="1021.56" traveltime="9.26" density="16.78" occupancy="2.80" waitingTime="0.00" speed="13.15" departed="0" arrived="0" entered="106" left="106" laneChangedFrom="43" laneChangedTo="43"/>
        <edge id="17to1" sampledSeconds="2335.21" traveltime="14.93" density="373.04" occupancy="46.63" waitingTime="1936.00" speed="0.84" departed="0" arrived="0" entered="114" left="110" laneChangedFrom="1" laneChangedTo="1"/>
        <edge id="17to3" sampledSeconds="407.40" traveltime="6.07" density="10.20" occupancy="2.55" waitingTime="0.00" speed="13.16" departed="0" arrived="64" entered="64" left="0" laneChangedFrom="0" laneChangedTo="0"/>
        <edge id="18to19" sampledSeconds="3037.89" traveltime="21.94" density="75.25" occupancy="18.81" waitingTime="1592.00" speed="3.68" departed="0" arrived="0" entered="137" left="121" laneChangedFrom="17" laneChangedTo="17"/>
        <edge id="18to7" sampledSeconds="3827.47" traveltime="97.80" density="5.89" occupancy="1.47" waitingTime="0.00" speed="13.28" departed="0" arrived="0" entered="41" left="38" laneChangedFrom="11" laneChangedTo="11"/>
        <edge id="19to18" sampledSeconds="273.43" traveltime="6.28" density="6.77" occupancy="1.69" waitingTime="0.00" speed="12.86" departed="0" arrived="0" entered="41" left="41" laneChangedFrom="10" laneChangedTo="10"/>
        <edge id="19to20" sampledSeconds="134.77" traveltime="5.50" density="3.82" occupancy="1.91" waitingTime="0.00" speed="12.84" departed="0" arrived="23" entered="23" left="0" laneChangedFrom="0" laneChangedTo="0"/>
        <edge id="19to21" sampledSeconds="1765.85" traveltime="13.87" density="51.15" occupancy="12.79" waitingTime="766.00" speed="4.98" departed="0" arrived="0" entered="119" left="118" laneChangedFrom="9" laneChangedTo="9"/>
        <edge id="1to14" sampledSeconds="31.25" traveltime="0.22" density="24.80" occupancy="6.20" waitingTime="0.00" speed="11.55" departed="0" arrived="0" entered="48" left="48" laneChangedFrom="0" laneChangedTo="0"/>
        <edge id="1to15" sampledSeconds="140.55" traveltime="0.36" density="66.45" occupancy="16.61" waitingTime="0.00" speed="11.75" departed="0" arrived="0" entered="179" left="179" laneChangedFrom="0" laneChangedTo="0"/>
        <edge id="1to16" sampledSeconds="165.11" traveltime="1.07" density="30.24" occupancy="5.04" waitingTime="0.00" speed="10.20" departed="0" arrived="0" entered="107" left="106" laneChangedFrom="6" laneChangedTo="6"/>
        <edge id="1to17" sampledSeconds="101.85" traveltime="1.14" density="16.14" occupancy="4.04" waitingTime="0.00" speed="11.07" departed="0" arrived="0" entered="64" left="64" laneChangedFrom="0" laneChangedTo="0"/>
        <edge id="20to19" sampledSeconds="1264.56" traveltime="45.23" density="35.81" occupancy="17.90" waitingTime="892.00" speed="1.56" departed="28" arrived="0" entered="0" left="28" laneChangedFrom="0" laneChangedTo="0"/>
        <edge id="21to19" sampledSeconds="887.96" traveltime="21.33" density="25.72" occupancy="4.29" waitingTime="537.00" speed="3.24" departed="0" arrived="0" entered="40" left="36" laneChangedFrom="8" laneChangedTo="8"/>
        <edge id="21to22" sampledSeconds="134.99" traveltime="5.73" density="3.70" occupancy="1.85" waitingTime="0.00" speed="12.72" departed="0" arrived="21" entered="23" left="0" laneChangedFrom="0" laneChangedTo="0"/>
        <edge id="21to23" sampledSeconds="1549.32" traveltime="13.11" density="17.94" occupancy="4.48" waitingTime="0.00" speed="13.18" departed="0" arrived="0" entered="115" left="114" laneChangedFrom="12" laneChangedTo="12"/>
        <edge id="22to21" sampledSeconds="1520.80" traveltime="55.49" density="41.74" occupancy="20.87" waitingTime="1151.00" speed="1.31" departed="28" arrived="0" entered="0" left="25" laneChangedFrom="0" laneChangedTo="0"/>
        <edge id="23to21" sampledSeconds="1315.14" traveltime="34.64" density="15.22" occupancy="2.54" waitingTime="715.00" speed="4.99" departed="0" arrived="0" entered="40" left="35" laneChangedFrom="7" laneChangedTo="7"/>
        <edge id="23to24" sampledSeconds="1684.97" traveltime="15.11" density="16.73" occupancy="4.18" waitingTime="0.00" speed="13.33" departed="0" arrived="0" entered="114" left="102" laneChangedFrom="9" laneChangedTo="9"/>
        <edge id="24to23" sampledSeconds="619.80" traveltime="15.12" density="6.15" occupancy="1.54" waitingTime="0.00" speed="13.32" departed="0" arrived="0" entered="40" left="40" laneChangedFrom="11" laneChangedTo="11"/>
        <edge id="24to25" sampledSeconds="689.15" traveltime="6.63" density="15.60" occupancy="3.90" waitingTime="0.00" speed="13.33" departed="0" arrived="0" entered="102" left="95" laneChangedFrom="5" laneChangedTo="5"/>
        <edge id="25to24" sampledSeconds="279.50" traveltime="6.61" density="6.32" occupancy="1.58" waitingTime="0.00" speed="13.36" departed="0" arrived="0" entered="40" left="40" laneChangedFrom="1" laneChangedTo="1"/>
        <edge id="25to26" sampledSeconds="566.20" traveltime="5.64" density="15.20" occupancy="3.80" waitingTime="0.00" speed="13.22" departed="0" arrived="0" entered="95" left="94" laneChangedFrom="5" laneChangedTo="5"/>
        <edge id="26to25" sampledSeconds="237.77" traveltime="5.57" density="6.38" occupancy="1.60" waitingTime="0.00" speed="13.38" departed="0" arrived="0" entered="40" left="40" laneChangedFrom="1" laneChangedTo="1"/>
        <edge id="26to27" sampledSeconds="493.02" traveltime="4.86" density="15.48" occupancy="3.87" waitingTime="0.00" speed="13.09" departed="0" arrived="0" entered="94" left="94" laneChangedFrom="11" laneChangedTo="11"/>
        <edge id="27to26" sampledSeconds="206.52" traveltime="4.79" density="6.49" occupancy="1.62" waitingTime="0.00" speed="13.30" departed="0" arrived="0" entered="40" left="40" laneChangedFrom="1" laneChangedTo="1"/>
        <edge id="27to28" sampledSeconds="339.17" traveltime="3.23" density="15.79" occupancy="3.95" waitingTime="0.00" speed="13.29" departed="0" arrived="0" entered="94" left="94" laneChangedFrom="1" laneChangedTo="1"/>
        <edge id="28to27" sampledSeconds="144.03" traveltime="3.23" density="6.71" occupancy="1.68" waitingTime="0.00" speed="13.32" departed="0" arrived="0" entered="40" left="40" laneChangedFrom="2" laneChangedTo="2"/>
        <edge id="28to39" sampledSeconds="291.41" traveltime="2.75" density="15.88" occupancy="3.97" waitingTime="0.00" speed="13.35" departed="0" arrived="0" entered="94" left="93" laneChangedFrom="1" laneChangedTo="1"/>
        <edge id="29to30" sampledSeconds="2434.42" traveltime="25.36" density="142.36" occupancy="23.73" waitingTime="2005.00" speed="1.35" departed="0" arrived="0" entered="88" left="79" laneChangedFrom="6" laneChangedTo="6"/>
        <edge id="29to39" sampledSeconds="489.58" traveltime="11.31" density="6.48" occupancy="1.62" waitingTime="0.00" speed="13.36" departed="0" arrived="0" entered="42" left="41" laneChangedFrom="6" laneChangedTo="6"/>
        <edge id="2to14" sampledSeconds="7786.73" traveltime="39.03" density="181.51" occupancy="18.15" waitingTime="4502.00" speed="2.20" departed="215" arrived="0" entered="0" left="188" laneChangedFrom="286" laneChangedTo="286"/>
        <edge id="30to29" sampledSeconds="128.76" traveltime="2.67" density="7.55" occupancy="1.89" waitingTime="0.00" speed="12.75" departed="0" arrived="0" entered="42" left="42" laneChangedFrom="0" laneChangedTo="0"/>
        <edge id="30to31" sampledSeconds="125.33" traveltime="1.49" density="12.76" occupancy="3.19" waitingTime="0.00" speed="13.18" departed="0" arrived="0" entered="67" left="67" laneChangedFrom="1" laneChangedTo="1"/>
        <edge id="30to32" sampledSeconds="14.62" traveltime="0.70" density="3.55" occupancy="0.89" waitingTime="0.00" speed="11.77" departed="0" arrived="0" entered="13" left="13" laneChangedFrom="0" laneChangedTo="0"/>
        <edge id="31to30" sampledSeconds="270.24" traveltime="12.83" density="27.82" occupancy="4.64" waitingTime="198.00" speed="1.51" departed="0" arrived="0" entered="17" left="16" laneChangedFrom="0" laneChangedTo="0"/>
        <edge id="31to34" sampledSeconds="340.65" traveltime="4.78" density="10.64" occupancy="2.66" waitingTime="0.00" speed="13.40" departed="0" arrived="0" entered="67" left="65" laneChangedFrom="3" laneChangedTo="3"/>
        <edge id="32to30" sampledSeconds="376.11" traveltime="8.50" density="91.29" occupancy="22.82" waitingTime="318.00" speed="0.97" departed="0" arrived="0" entered="28" left="27" laneChangedFrom="0" laneChangedTo="0"/>
        <edge id="32to33" sampledSeconds="29.71" traveltime="1.98" density="2.27" occupancy="0.57" waitingTime="0.00" speed="13.20" departed="0" arrived="13" entered="13" left="0" laneChangedFrom="0" laneChangedTo="0"/>
        <edge id="33to32" sampledSeconds="505.15" traveltime="16.93" density="38.63" occupancy="9.66" waitingTime="313.00" speed="1.54" departed="32" arrived="0" entered="0" left="29" laneChangedFrom="1" laneChangedTo="1"/>
        <edge id="34to31" sampledSeconds="105.01" traveltime="5.73" density="3.29" occupancy="0.55" waitingTime="12.00" speed="11.15" departed="0" arrived="0" entered="17" left="17" laneChangedFrom="4" laneChangedTo="4"/>
        <edge id="34to35" sampledSeconds="2115.65" traveltime="37.81" density="9.74" occupancy="2.43" waitingTime="2.00" speed="11.49" departed="0" arrived="0" entered="65" left="43" laneChangedFrom="25" laneChangedTo="25"/>
        <edge id="35to34" sampledSeconds="559.88" traveltime="32.56" density="2.58" occupancy="0.64" waitingTime="0.00" speed="13.34" departed="0" arrived="0" entered="17" left="17" laneChangedFrom="16" laneChangedTo="16"/>
        <edge id="35to36" sampledSeconds="280.13" traveltime="6.47" density="8.00" occupancy="2.00" waitingTime="0.00" speed="10.83" departed="0" arrived="0" entered="43" left="39" laneChangedFrom="5" laneChangedTo="5"/>
        <edge id="36to35" sampledSeconds="95.86" traveltime="5.26" density="2.74" occupancy="0.69" waitingTime="0.00" speed="13.29" departed="0" arrived="0" entered="17" left="17" laneChangedFrom="0" laneChangedTo="0"/>
        <edge id="36to37" sampledSeconds="235.15" traveltime="5.80" density="7.49" occupancy="1.87" waitingTime="0.00" speed="10.82" departed="0" arrived="0" entered="39" left="35" laneChangedFrom="2" laneChangedTo="2"/>
        <edge id="37to36" sampledSeconds="86.17" traveltime="4.70" density="2.74" occupancy="0.69" waitingTime="0.00" speed="13.37" departed="0" arrived="0" entered="17" left="17" laneChangedFrom="0" laneChangedTo="0"/>
        <edge id="37to38" sampledSeconds="146.00" traveltime="3.86" density="6.33" occupancy="1.58" waitingTime="0.00" speed="11.95" departed="0" arrived="0" entered="35" left="33" laneChangedFrom="5" laneChangedTo="5"/>
        <edge id="38to37" sampledSeconds="66.97" traveltime="3.44" density="2.90" occupancy="0.73" waitingTime="0.00" speed="13.39" departed="0" arrived="0" entered="18" left="17" laneChangedFrom="1" laneChangedTo="1"/>
        <edge id="38to40" sampledSeconds="721.29" traveltime="21.34" density="22.40" occupancy="3.73" waitingTime="494.00" speed="3.02" departed="0" arrived="0" entered="33" left="28" laneChangedFrom="8" laneChangedTo="8"/>
        <edge id="39to28" sampledSeconds="126.78" traveltime="2.75" density="6.91" occupancy="1.73" waitingTime="0.00" speed="13.35" departed="0" arrived="0" entered="41" left="40" laneChangedFrom="2" laneChangedTo="2"/>
        <edge id="39to29" sampledSeconds="2418.87" traveltime="25.94" density="32.00" occupancy="5.33" waitingTime="1072.00" speed="5.83" departed="0" arrived="0" entered="92" left="88" laneChangedFrom="6" laneChangedTo="6"/>
        <edge id="3to17" sampledSeconds="3969.23" traveltime="33.92" density="99.47" occupancy="12.43" waitingTime="2319.67" speed="2.35" departed="119" arrived="0" entered="0" left="114" laneChangedFrom="144" laneChangedTo="144"/>
        <edge id="40to38" sampledSeconds="94.27" traveltime="4.86" density="2.93" occupancy="0.73" waitingTime="0.00" speed="13.25" departed="0" arrived="0" entered="18" left="18" laneChangedFrom="1" laneChangedTo="1"/>
        <edge id="40to41" sampledSeconds="95.26" traveltime="1.94" density="8.20" occupancy="1.37" waitingTime="0.00" speed="11.98" departed="0" arrived="42" entered="42" left="0" laneChangedFrom="1" laneChangedTo="1"/>
        <edge id="40to42" sampledSeconds="587.36" traveltime="21.90" density="10.27" occupancy="2.57" waitingTime="281.00" speed="5.22" departed="0" arrived="0" entered="26" left="22" laneChangedFrom="3" laneChangedTo="3"/>
        <edge id="42to40" sampledSeconds="1699.54" traveltime="23.37" density="29.72" occupancy="3.71" waitingTime="825.00" speed="4.89" departed="0" arrived="0" entered="72" left="58" laneChangedFrom="50" laneChangedTo="50"/>
        <edge id="42to43" sampledSeconds="443.57" traveltime="15.82" density="75.50" occupancy="12.58" waitingTime="366.00" speed="0.74" departed="0" arrived="0" entered="22" left="18" laneChangedFrom="1" laneChangedTo="1"/>
        <edge id="43to42" sampledSeconds="109.35" traveltime="1.07" density="18.61" occupancy="3.10" waitingTime="0.00" speed="10.99" departed="0" arrived="0" entered="72" left="72" laneChangedFrom="9" laneChangedTo="9"/>
        <edge id="43to45" sampledSeconds="227.73" traveltime="1.81" density="19.36" occupancy="4.84" waitingTime="0.00" speed="13.00" departed="0" arrived="107" entered="107" left="0" laneChangedFrom="0" laneChangedTo="0"/>
        <edge id="43to46" sampledSeconds="1063.43" traveltime="29.01" density="7.19" occupancy="1.80" waitingTime="73.00" speed="10.19" departed="0" arrived="0" entered="37" left="35" laneChangedFrom="19" laneChangedTo="19"/>
        <edge id="44to43" sampledSeconds="3694.48" traveltime="33.82" density="281.91" occupancy="28.19" waitingTime="2908.00" speed="0.78" departed="112" arrived="0" entered="0" left="105" laneChangedFrom="223" laneChangedTo="223"/>
        <edge id="45to43" sampledSeconds="1340.70" traveltime="32.52" density="113.96" occupancy="28.49" waitingTime="1074.00" speed="0.72" departed="42" arrived="0" entered="0" left="41" laneChangedFrom="32" laneChangedTo="32"/>
        <edge id="46to43" sampledSeconds="4385.36" traveltime="61.25" density="29.66" occupancy="7.41" waitingTime="2302.00" speed="4.83" departed="0" arrived="0" entered="74" left="52" laneChangedFrom="37" laneChangedTo="37"/>
        <edge id="46to47" sampledSeconds="682.00" traveltime="15.55" density="91.67" occupancy="11.46" waitingTime="515.00" speed="0.96" departed="0" arrived="0" entered="34" left="30" laneChangedFrom="2" laneChangedTo="2"/>
        <edge id="47to46" sampledSeconds="115.66" traveltime="1.17" density="15.55" occupancy="3.89" waitingTime="0.00" speed="12.72" departed="0" arrived="0" entered="74" left="74" laneChangedFrom="0" laneChangedTo="0"/>
        <edge id="47to48" sampledSeconds="400.77" traveltime="4.69" density="12.96" occupancy="3.24" waitingTime="0.00" speed="13.20" departed="0" arrived="79" entered="82" left="0" laneChangedFrom="0" laneChangedTo="0"/>
        <edge id="47to49" sampledSeconds="550.28" traveltime="5.01" density="16.64" occupancy="4.16" waitingTime="0.00" speed="13.20" departed="0" arrived="102" entered="106" left="0" laneChangedFrom="0" laneChangedTo="0"/>
        <edge id="47to50" sampledSeconds="111.37" traveltime="1.43" density="12.14" occupancy="3.03" waitingTime="0.00" speed="12.79" departed="0" arrived="0" entered="61" left="61" laneChangedFrom="3" laneChangedTo="3"/>
        <edge id="48to47" sampledSeconds="5873.29" traveltime="48.83" density="189.92" occupancy="18.99" waitingTime="4367.00" speed="1.27" departed="123" arrived="0" entered="0" left="118" laneChangedFrom="189" laneChangedTo="189"/>
        <edge id="49to47" sampledSeconds="5228.12" traveltime="39.34" density="158.12" occupancy="15.81" waitingTime="3558.00" speed="1.68" departed="135" arrived="0" entered="0" left="130" laneChangedFrom="195" laneChangedTo="195"/>
        <edge id="4to13" sampledSeconds="18.34" traveltime="1.66" density="1.67" occupancy="0.42" waitingTime="0.00" speed="13.26" departed="0" arrived="0" entered="9" left="9" laneChangedFrom="0" laneChangedTo="0"/>
        <edge id="4to16" sampledSeconds="11844.68" traveltime="113.08" density="194.53" occupancy="32.42" waitingTime="9109.00" speed="1.08" departed="0" arrived="0" entered="118" left="83" laneChangedFrom="7" laneChangedTo="7"/>
        <edge id="4to5" sampledSeconds="734.00" traveltime="7.33" density="15.03" occupancy="2.51" waitingTime="0.00" speed="13.32" departed="0" arrived="95" entered="97" left="0" laneChangedFrom="11" laneChangedTo="11"/>
        <edge id="50to47" sampledSeconds="1814.85" traveltime="26.56" density="197.80" occupancy="32.97" waitingTime="1498.00" speed="0.69" departed="0" arrived="0" entered="58" left="50" laneChangedFrom="3" laneChangedTo="3"/>
        <edge id="50to51" sampledSeconds="1012.75" traveltime="16.22" density="9.64" occupancy="2.41" waitingTime="0.00" speed="12.95" departed="0" arrived="0" entered="61" left="61" laneChangedFrom="29" laneChangedTo="29"/>
        <edge id="51to50" sampledSeconds="2396.50" traveltime="33.75" density="22.81" occupancy="5.70" waitingTime="849.00" speed="6.23" departed="0" arrived="0" entered="72" left="58" laneChangedFrom="11" laneChangedTo="11"/>
        <edge id="51to52" sampledSeconds="772.00" traveltime="10.87" density="54.58" occupancy="9.10" waitingTime="516.00" speed="2.60" departed="0" arrived="0" entered="61" left="59" laneChangedFrom="16" laneChangedTo="16"/>
        <edge id="52to51" sampledSeconds="190.47" traveltime="2.25" density="13.47" occupancy="3.37" waitingTime="0.00" speed="12.58" departed="0" arrived="0" entered="72" left="72" laneChangedFrom="4" laneChangedTo="4"/>
        <edge id="52to53" sampledSeconds="131.64" traveltime="4.54" density="4.49" occupancy="2.24" waitingTime="0.00" speed="12.93" departed="0" arrived="27" entered="27" left="0" laneChangedFrom="0" laneChangedTo="0"/>
        <edge id="52to54" sampledSeconds="75.95" traveltime="3.12" density="3.83" occupancy="1.91" waitingTime="0.00" speed="12.73" departed="0" arrived="22" entered="22" left="0" laneChangedFrom="0" laneChangedTo="0"/>
        <edge id="52to55" sampledSeconds="172.27" traveltime="2.45" density="11.91" occupancy="2.98" waitingTime="0.00" speed="11.79" departed="0" arrived="0" entered="60" left="60" laneChangedFrom="6" laneChangedTo="6"/>
        <edge id="53to52" sampledSeconds="1137.32" traveltime="41.33" density="38.78" occupancy="9.69" waitingTime="818.00" speed="1.42" departed="28" arrived="0" entered="0" left="25" laneChangedFrom="4" laneChangedTo="4"/>
        <edge id="54to52" sampledSeconds="1181.49" traveltime="45.11" density="59.52" occupancy="14.88" waitingTime="921.00" speed="0.88" departed="28" arrived="0" entered="0" left="24" laneChangedFrom="1" laneChangedTo="1"/>
        <edge id="55to52" sampledSeconds="714.11" traveltime="8.19" density="49.39" occupancy="8.23" waitingTime="428.00" speed="3.53" departed="0" arrived="0" entered="75" left="73" laneChangedFrom="7" laneChangedTo="7"/>
        <edge id="55to56" sampledSeconds="1011.27" traveltime="17.53" density="8.96" occupancy="2.24" waitingTime="0.00" speed="12.87" departed="0" arrived="0" entered="60" left="54" laneChangedFrom="10" laneChangedTo="10"/>
        <edge id="56to55" sampledSeconds="1331.51" traveltime="17.37" density="11.80" occupancy="2.95" waitingTime="0.00" speed="12.99" departed="0" arrived="0" entered="75" left="75" laneChangedFrom="17" laneChangedTo="17"/>
        <edge id="56to57" sampledSeconds="485.11" traveltime="8.05" density="25.78" occupancy="3.22" waitingTime="259.00" speed="4.68" departed="0" arrived="0" entered="54" left="53" laneChangedFrom="8" laneChangedTo="8"/>
        <edge id="57to56" sampledSeconds="267.34" traveltime="3.15" density="14.21" occupancy="3.55" waitingTime="0.00" speed="11.96" departed="0" arrived="0" entered="75" left="75" laneChangedFrom="6" laneChangedTo="6"/>
        <edge id="57to58" sampledSeconds="114.08" traveltime="3.29" density="5.36" occupancy="1.34" waitingTime="0.00" speed="12.93" departed="0" arrived="0" entered="31" left="31" laneChangedFrom="0" laneChangedTo="0"/>
        <edge id="57to60" sampledSeconds="179.51" traveltime="2.87" density="9.84" occupancy="2.46" waitingTime="0.00" speed="12.71" departed="0" arrived="0" entered="55" left="55" laneChangedFrom="0" laneChangedTo="0"/>
        <edge id="57to62" sampledSeconds="481.44" traveltime="4.82" density="15.41" occupancy="3.85" waitingTime="0.00" speed="12.95" departed="0" arrived="0" entered="93" left="91" laneChangedFrom="11" laneChangedTo="11"/>
        <edge id="58to57" sampledSeconds="3011.69" traveltime="51.14" density="141.46" occupancy="23.58" waitingTime="2493.00" speed="0.83" departed="0" arrived="0" entered="58" left="45" laneChangedFrom="19" laneChangedTo="19"/>
        <edge id="58to59" sampledSeconds="134.58" traveltime="4.05" density="4.99" occupancy="1.25" waitingTime="0.00" speed="13.34" departed="0" arrived="31" entered="31" left="0" laneChangedFrom="0" laneChangedTo="0"/>
        <edge id="59to58" sampledSeconds="411.40" traveltime="7.11" density="15.24" occupancy="2.54" waitingTime="0.00" speed="7.59" departed="58" arrived="0" entered="0" left="58" laneChangedFrom="24" laneChangedTo="24"/>
        <edge id="5to4" sampledSeconds="3251.55" traveltime="26.56" density="66.60" occupancy="11.10" waitingTime="1495.00" speed="3.68" departed="125" arrived="0" entered="0" left="120" laneChangedFrom="124" laneChangedTo="124"/>
        <edge id="60to57" sampledSeconds="2118.12" traveltime="29.27" density="116.16" occupancy="19.36" waitingTime="1674.00" speed="1.25" departed="0" arrived="0" entered="68" left="59" laneChangedFrom="13" laneChangedTo="13"/>
        <edge id="60to61" sampledSeconds="199.07" traveltime="3.29" density="9.06" occupancy="2.27" waitingTime="0.00" speed="13.36" departed="0" arrived="55" entered="55" left="0" laneChangedFrom="0" laneChangedTo="0"/>
        <edge id="61to60" sampledSeconds="722.44" traveltime="10.51" density="32.88" occupancy="8.22" waitingTime="210.00" speed="4.18" departed="70" arrived="0" entered="0" left="69" laneChangedFrom="8" laneChangedTo="8"/>
        <edge id="62to57" sampledSeconds="3650.70" traveltime="33.65" density="116.82" occupancy="19.47" waitingTime="2643.00" speed="1.86" departed="0" arrived="0" entered="102" left="97" laneChangedFrom="7" laneChangedTo="7"/>
        <edge id="62to63" sampledSeconds="641.71" traveltime="6.78" density="15.00" occupancy="3.75" waitingTime="2.00" speed="12.63" departed="0" arrived="0" entered="91" left="87" laneChangedFrom="33" laneChangedTo="33"/>
        <edge id="63to62" sampledSeconds="1023.33" traveltime="9.48" density="23.92" occupancy="5.98" waitingTime="241.00" speed="9.03" departed="0" arrived="0" entered="102" left="102" laneChangedFrom="12" laneChangedTo="12"/>
        <edge id="63to64" sampledSeconds="563.00" traveltime="5.58" density="41.08" occupancy="6.85" waitingTime="223.00" speed="4.91" departed="0" arrived="0" entered="87" left="85" laneChangedFrom="6" laneChangedTo="6"/>
        <edge id="64to63" sampledSeconds="253.33" traveltime="2.10" density="18.48" occupancy="4.62" waitingTime="0.00" speed="13.05" departed="0" arrived="0" entered="102" left="102" laneChangedFrom="1" laneChangedTo="1"/>
        <edge id="64to65" sampledSeconds="165.79" traveltime="5.37" density="4.84" occupancy="2.42" waitingTime="0.00" speed="12.77" departed="0" arrived="29" entered="29" left="0" laneChangedFrom="0" laneChangedTo="0"/>
        <edge id="64to66" sampledSeconds="25.81" traveltime="1.90" density="2.17" occupancy="1.08" waitingTime="0.00" speed="12.56" departed="0" arrived="11" entered="12" left="0" laneChangedFrom="0" laneChangedTo="0"/>
        <edge id="64to67" sampledSeconds="198.27" traveltime="2.41" density="13.23" occupancy="3.31" waitingTime="0.00" speed="12.43" departed="0" arrived="0" entered="71" left="70" laneChangedFrom="0" laneChangedTo="0"/>
        <edge id="65to64" sampledSeconds="0.00" departed="0" arrived="0" entered="0" left="0" laneChangedFrom="0" laneChangedTo="0"/>
        <edge id="66to64" sampledSeconds="730.58" traveltime="26.44" density="61.37" occupancy="30.68" waitingTime="547.00" speed="0.90" departed="28" arrived="0" entered="0" left="27" laneChangedFrom="0" laneChangedTo="0"/>
        <edge id="67to64" sampledSeconds="306.20" traveltime="2.50" density="20.43" occupancy="3.40" waitingTime="26.00" speed="11.99" departed="0" arrived="0" entered="106" left="104" laneChangedFrom="3" laneChangedTo="3"/>
        <edge id="67to68" sampledSeconds="786.87" traveltime="11.59" density="12.12" occupancy="3.03" waitingTime="86.00" speed="11.20" departed="0" arrived="0" entered="70" left="64" laneChangedFrom="11" laneChangedTo="11"/>
        <edge id="68to67" sampledSeconds="1129.12" traveltime="9.76" density="17.40" occupancy="4.35" waitingTime="0.00" speed="13.31" departed="0" arrived="0" entered="117" left="106" laneChangedFrom="11" laneChangedTo="11"/>
        <edge id="68to69" sampledSeconds="1110.99" traveltime="14.81" density="76.54" occupancy="12.76" waitingTime="801.00" speed="1.96" departed="0" arrived="0" entered="64" left="64" laneChangedFrom="2" laneChangedTo="2"/>
        <edge id="69to68" sampledSeconds="310.31" traveltime="2.26" density="21.38" occupancy="5.34" waitingTime="0.00" speed="12.87" departed="0" arrived="0" entered="118" left="117" laneChangedFrom="2" laneChangedTo="2"/>
        <edge id="69to70" sampledSeconds="130.85" traveltime="3.51" density="5.66" occupancy="2.83" waitingTime="0.00" speed="13.15" departed="0" arrived="34" entered="35" left="0" laneChangedFrom="0" laneChangedTo="0"/>
        <edge id="69to71" sampledSeconds="122.04" traveltime="3.51" density="5.37" occupancy="2.68" waitingTime="0.00" speed="12.96" departed="0" arrived="32" entered="32" left="0" laneChangedFrom="0" laneChangedTo="0"/>
        <edge id="69to72" sampledSeconds="347.52" traveltime="5.30" density="10.08" occupancy="2.52" waitingTime="0.00" speed="13.00" departed="0" arrived="0" entered="62" left="60" laneChangedFrom="3" laneChangedTo="3"/>
        <edge id="6to15" sampledSeconds="743.26" traveltime="23.03" density="18.43" occupancy="2.30" waitingTime="448.00" speed="3.50" departed="0" arrived="0" entered="33" left="28" laneChangedFrom="7" laneChangedTo="7"/>
        <edge id="6to7" sampledSeconds="1292.40" traveltime="6.93" density="28.03" occupancy="7.01" waitingTime="0.00" speed="13.30" departed="0" arrived="0" entered="177" left="176" laneChangedFrom="7" laneChangedTo="7"/>
        <edge id="70to69" sampledSeconds="992.75" traveltime="35.70" density="42.98" occupancy="10.74" waitingTime="677.00" speed="1.29" departed="28" arrived="0" entered="0" left="27" laneChangedFrom="0" laneChangedTo="0"/>
        <edge id="71to69" sampledSeconds="1013.33" traveltime="36.27" density="44.58" occupancy="11.15" waitingTime="680.00" speed="1.25" departed="28" arrived="0" entered="0" left="28" laneChangedFrom="0" laneChangedTo="0"/>