<?xml version="1.0" encoding="UTF-8"?>

<!-- generated on 3/30/2016 11:19:50 AM by SUMO gui Version 0.24.0
<?xml version="1.0" encoding="UTF-8"?>

<configuration xmlns:xsi="http://www.w3.org/2001/XMLSchema-instance" xsi:noNamespaceSchemaLocation="http://sumo.dlr.de/xsd/sumo-gui.exeConfiguration.xsd">

    <input>
        <net-file value="C:\Users\Xavier\Dropbox\Courses\Fall\ME%20199%20-%20Final%20Year%20Project\Sumo%20Projects\Simple%20Intersection%203%20(Experiment)\intersection2Test.net.xml"/>
        <route-files value="C:\Users\Xavier\Dropbox\Courses\Fall\ME%20199%20-%20Final%20Year%20Project\Sumo%20Projects\Simple%20Intersection%203%20(Experiment)\intersection2Test.rou.xml"/>
    </input>

    <output>
        <summary-output value="tripinfo.xml"/>
        <save-state.prefix value="C:\Users\Xavier\Dropbox\Courses\Fall\ME%20199%20-%20Final%20Year%20Project\Sumo%20Projects\Simple%20Intersection%203%20(Experiment)\state"/>
    </output>

    <time>
        <begin value="0"/>
    </time>

    <processing>
        <time-to-teleport value="-1"/>
    </processing>

    <emissions>
        <phemlight-path value="C:\Users\Xavier\Dropbox\Courses\Fall\ME%20199%20-%20Final%20Year%20Project\Sumo%20Projects\Simple%20Intersection%203%20(Experiment)\./PHEMlight/"/>
    </emissions>

    <traci_server>
        <remote-port value="8873"/>
    </traci_server>

</configuration>
-->

<summary xmlns:xsi="http://www.w3.org/2001/XMLSchema-instance" xsi:noNamespaceSchemaLocation="http://sumo.dlr.de/xsd/summary_file.xsd">
    <step time="0.00" loaded="5" inserted="4" running="4" waiting="0" ended="0" meanWaitingTime="0.00" meanTravelTime="-1.00" duration="0"/>
    <step time="1.00" loaded="5" inserted="4" running="4" waiting="0" ended="0" meanWaitingTime="0.00" meanTravelTime="-1.00" duration="0"/>
    <step time="2.00" loaded="5" inserted="4" running="4" waiting="0" ended="0" meanWaitingTime="0.00" meanTravelTime="-1.00" duration="0"/>
    <step time="3.00" loaded="5" inserted="4" running="4" waiting="0" ended="0" meanWaitingTime="0.00" meanTravelTime="-1.00" duration="0"/>
    <step time="4.00" loaded="5" inserted="4" running="4" waiting="0" ended="0" meanWaitingTime="0.00" meanTravelTime="-1.00" duration="0"/>
    <step time="5.00" loaded="5" inserted="4" running="4" waiting="0" ended="0" meanWaitingTime="0.00" meanTravelTime="-1.00" duration="0"/>
    <step time="6.00" loaded="141" inserted="8" running="8" waiting="0" ended="0" meanWaitingTime="0.00" meanTravelTime="-1.00" duration="0"/>
    <step time="7.00" loaded="141" inserted="8" running="8" waiting="0" ended="0" meanWaitingTime="0.00" meanTravelTime="-1.00" duration="17"/>
    <step time="8.00" loaded="141" inserted="8" running="8" waiting="0" ended="0" meanWaitingTime="0.00" meanTravelTime="-1.00" duration="1"/>
    <step time="9.00" loaded="141" inserted="8" running="8" waiting="0" ended="0" meanWaitingTime="0.00" meanTravelTime="-1.00" duration="0"/>
    <step time="10.00" loaded="141" inserted="8" running="8" waiting="0" ended="0" meanWaitingTime="0.00" meanTravelTime="-1.00" duration="0"/>
    <step time="11.00" loaded="141" inserted="8" running="8" waiting="0" ended="0" meanWaitingTime="0.00" meanTravelTime="-1.00" duration="1"/>
    <step time="12.00" loaded="141" inserted="12" running="12" waiting="0" ended="0" meanWaitingTime="0.00" meanTravelTime="-1.00" duration="0"/>
    <step time="13.00" loaded="141" inserted="12" running="12" waiting="0" ended="0" meanWaitingTime="0.00" meanTravelTime="-1.00" duration="0"/>
    <step time="14.00" loaded="141" inserted="12" running="12" waiting="0" ended="0" meanWaitingTime="0.00" meanTravelTime="-1.00" duration="0"/>
    <step time="15.00" loaded="141" inserted="12" running="12" waiting="0" ended="0" meanWaitingTime="0.00" meanTravelTime="-1.00" duration="0"/>
    <step time="16.00" loaded="141" inserted="12" running="12" waiting="0" ended="0" meanWaitingTime="0.00" meanTravelTime="-1.00" duration="0"/>
    <step time="17.00" loaded="141" inserted="12" running="12" waiting="0" ended="0" meanWaitingTime="0.00" meanTravelTime="-1.00" duration="1"/>
    <step time="18.00" loaded="141" inserted="16" running="16" waiting="0" ended="0" meanWaitingTime="0.00" meanTravelTime="-1.00" duration="1"/>
    <step time="19.00" loaded="141" inserted="16" running="16" waiting="0" ended="0" meanWaitingTime="0.00" meanTravelTime="-1.00" duration="0"/>
    <step time="20.00" loaded="141" inserted="16" running="16" waiting="0" ended="0" meanWaitingTime="0.00" meanTravelTime="-1.00" duration="1"/>
    <step time="21.00" loaded="141" inserted="16" running="16" waiting="0" ended="0" meanWaitingTime="0.00" meanTravelTime="-1.00" duration="0"/>
    <step time="22.00" loaded="141" inserted="16" running="16" waiting="0" ended="0" meanWaitingTime="0.00" meanTravelTime="-1.00" duration="0"/>
    <step time="23.00" loaded="141" inserted="16" running="16" waiting="0" ended="0" meanWaitingTime="0.00" meanTravelTime="-1.00" duration="0"/>
    <step time="24.00" loaded="141" inserted="20" running="20" waiting="0" ended="0" meanWaitingTime="0.00" meanTravelTime="-1.00" duration="0"/>
    <step time="25.00" loaded="141" inserted="20" running="20" waiting="0" ended="0" meanWaitingTime="0.00" meanTravelTime="-1.00" duration="1"/>
    <step time="26.00" loaded="141" inserted="20" running="20" waiting="0" ended="0" meanWaitingTime="0.00" meanTravelTime="-1.00" duration="0"/>
    <step time="27.00" loaded="141" inserted="20" running="20" waiting="0" ended="0" meanWaitingTime="0.00" meanTravelTime="-1.00" duration="0"/>
    <step time="28.00" loaded="141" inserted="20" running="20" waiting="0" ended="0" meanWaitingTime="0.00" meanTravelTime="-1.00" duration="0"/>
    <step time="29.00" loaded="141" inserted="20" running="20" waiting="0" ended="0" meanWaitingTime="0.00" meanTravelTime="-1.00" duration="0"/>
    <step time="30.00" loaded="141" inserted="24" running="24" waiting="0" ended="0" meanWaitingTime="0.00" meanTravelTime="-1.00" duration="1"/>
    <step time="31.00" loaded="141" inserted="24" running="24" waiting="0" ended="0" meanWaitingTime="0.00" meanTravelTime="-1.00" duration="0"/>
    <step time="32.00" loaded="141" inserted="24" running="24" waiting="0" ended="0" meanWaitingTime="0.00" meanTravelTime="-1.00" duration="1"/>
    <step time="33.00" loaded="141" inserted="24" running="24" waiting="0" ended="0" meanWaitingTime="0.00" meanTravelTime="-1.00" duration="1"/>
    <step time="34.00" loaded="141" inserted="24" running="24" waiting="0" ended="0" meanWaitingTime="0.00" meanTravelTime="-1.00" duration="0"/>
    <step time="35.00" loaded="141" inserted="24" running="24" waiting="0" ended="0" meanWaitingTime="0.00" meanTravelTime="-1.00" duration="0"/>
    <step time="36.00" loaded="141" inserted="28" running="28" waiting="0" ended="0" meanWaitingTime="0.00" meanTravelTime="-1.00" duration="0"/>
    <step time="37.00" loaded="141" inserted="28" running="28" waiting="0" ended="0" meanWaitingTime="0.00" meanTravelTime="-1.00" duration="1"/>
    <step time="38.00" loaded="141" inserted="28" running="28" waiting="0" ended="0" meanWaitingTime="0.00" meanTravelTime="-1.00" duration="1"/>
    <step time="39.00" loaded="141" inserted="28" running="28" waiting="0" ended="0" meanWaitingTime="0.00" meanTravelTime="-1.00" duration="1"/>
    <step time="40.00" loaded="141" inserted="28" running="28" waiting="0" ended="0" meanWaitingTime="0.00" meanTravelTime="-1.00" duration="1"/>
    <step time="41.00" loaded="141" inserted="28" running="28" waiting="0" ended="0" meanWaitingTime="0.00" meanTravelTime="-1.00" duration="1"/>
    <step time="42.00" loaded="141" inserted="32" running="32" waiting="0" ended="0" meanWaitingTime="0.00" meanTravelTime="-1.00" duration="1"/>
    <step time="43.00" loaded="141" inserted="32" running="32" waiting="0" ended="0" meanWaitingTime="0.00" meanTravelTime="-1.00" duration="1"/>
    <step time="44.00" loaded="141" inserted="32" running="32" waiting="0" ended="0" meanWaitingTime="0.00" meanTravelTime="-1.00" duration="0"/>
    <step time="45.00" loaded="141" inserted="32" running="32" waiting="0" ended="0" meanWaitingTime="0.00" meanTravelTime="-1.00" duration="1"/>
    <step time="46.00" loaded="141" inserted="32" running="32" waiting="0" ended="0" meanWaitingTime="0.00" meanTravelTime="-1.00" duration="0"/>
    <step time="47.00" loaded="141" inserted="32" running="32" waiting="0" ended="0" meanWaitingTime="0.00" meanTravelTime="-1.00" duration="1"/>
    <step time="48.00" loaded="141" inserted="36" running="36" waiting="0" ended="0" meanWaitingTime="0.00" meanTravelTime="-1.00" duration="2"/>
    <step time="49.00" loaded="141" inserted="36" running="36" waiting="0" ended="0" meanWaitingTime="0.00" meanTravelTime="-1.00" duration="1"/>
    <step time="50.00" loaded="141" inserted="36" running="36" waiting="0" ended="0" meanWaitingTime="0.00" meanTravelTime="-1.00" duration="0"/>
    <step time="51.00" loaded="141" inserted="36" running="36" waiting="0" ended="0" meanWaitingTime="0.00" meanTravelTime="-1.00" duration="0"/>
    <step time="52.00" loaded="141" inserted="36" running="36" waiting="0" ended="0" meanWaitingTime="0.00" meanTravelTime="-1.00" duration="0"/>
    <step time="53.00" loaded="141" inserted="36" running="36" waiting="0" ended="0" meanWaitingTime="0.00" meanTravelTime="-1.00" duration="0"/>
    <step time="54.00" loaded="141" inserted="40" running="40" waiting="0" ended="0" meanWaitingTime="0.00" meanTravelTime="-1.00" duration="2"/>
    <step time="55.00" loaded="141" inserted="40" running="40" waiting="0" ended="0" meanWaitingTime="0.00" meanTravelTime="-1.00" duration="1"/>
    <step time="56.00" loaded="141" inserted="40" running="40" waiting="0" ended="0" meanWaitingTime="0.00" meanTravelTime="-1.00" duration="0"/>
    <step time="57.00" loaded="141" inserted="40" running="40" waiting="0" ended="0" meanWaitingTime="0.00" meanTravelTime="-1.00" duration="1"/>
    <step time="58.00" loaded="141" inserted="40" running="40" waiting="0" ended="0" meanWaitingTime="0.00" meanTravelTime="-1.00" duration="0"/>
    <step time="59.00" loaded="141" inserted="40" running="40" waiting="0" ended="0" meanWaitingTime="0.00" meanTravelTime="-1.00" duration="0"/>
    <step time="60.00" loaded="141" inserted="44" running="44" waiting="0" ended="0" meanWaitingTime="0.00" meanTravelTime="-1.00" duration="1"/>
    <step time="61.00" loaded="141" inserted="44" running="44" waiting="0" ended="0" meanWaitingTime="0.00" meanTravelTime="-1.00" duration="1"/>
    <step time="62.00" loaded="141" inserted="44" running="44" waiting="0" ended="0" meanWaitingTime="0.00" meanTravelTime="-1.00" duration="1"/>
    <step time="63.00" loaded="141" inserted="44" running="44" waiting="0" ended="0" meanWaitingTime="0.00" meanTravelTime="-1.00" duration="0"/>
    <step time="64.00" loaded="141" inserted="44" running="44" waiting="0" ended="0" meanWaitingTime="0.00" meanTravelTime="-1.00" duration="0"/>
    <step time="65.00" loaded="141" inserted="44" running="44" waiting="0" ended="0" meanWaitingTime="0.00" meanTravelTime="-1.00" duration="0"/>
    <step time="66.00" loaded="141" inserted="48" running="48" waiting="0" ended="0" meanWaitingTime="0.00" meanTravelTime="-1.00" duration="1"/>
    <step time="67.00" loaded="141" inserted="48" running="48" waiting="0" ended="0" meanWaitingTime="0.00" meanTravelTime="-1.00" duration="1"/>
    <step time="68.00" loaded="141" inserted="48" running="48" waiting="0" ended="0" meanWaitingTime="0.00" meanTravelTime="-1.00" duration="0"/>
    <step time="69.00" loaded="141" inserted="48" running="48" waiting="0" ended="0" meanWaitingTime="0.00" meanTravelTime="-1.00" duration="1"/>
    <step time="70.00" loaded="141" inserted="48" running="48" waiting="0" ended="0" meanWaitingTime="0.00" meanTravelTime="-1.00" duration="1"/>
    <step time="71.00" loaded="141" inserted="48" running="48" waiting="0" ended="0" meanWaitingTime="0.00" meanTravelTime="-1.00" duration="1"/>
    <step time="72.00" loaded="141" inserted="52" running="52" waiting="0" ended="0" meanWaitingTime="0.00" meanTravelTime="-1.00" duration="1"/>
    <step time="73.00" loaded="141" inserted="52" running="52" waiting="0" ended="0" meanWaitingTime="0.00" meanTravelTime="-1.00" duration="1"/>
    <step time="74.00" loaded="141" inserted="52" running="52" waiting="0" ended="0" meanWaitingTime="0.00" meanTravelTime="-1.00" duration="1"/>
    <step time="75.00" loaded="141" inserted="52" running="52" waiting="0" ended="0" meanWaitingTime="0.00" meanTravelTime="-1.00" duration="1"/>
    <step time="76.00" loaded="141" inserted="52" running="52" waiting="0" ended="0" meanWaitingTime="0.00" meanTravelTime="-1.00" duration="0"/>
    <step time="77.00" loaded="141" inserted="52" running="51" waiting="0" ended="1" meanWaitingTime="0.00" meanTravelTime="77.00" duration="1"/>
    <step time="78.00" loaded="141" inserted="56" running="54" waiting="0" ended="2" meanWaitingTime="0.00" meanTravelTime="77.50" duration="1"/>
    <step time="79.00" loaded="141" inserted="56" running="54" waiting="0" ended="2" meanWaitingTime="0.00" meanTravelTime="77.50" duration="1"/>
    <step time="80.00" loaded="141" inserted="56" running="54" waiting="0" ended="2" meanWaitingTime="0.00" meanTravelTime="77.50" duration="0"/>
    <step time="81.00" loaded="141" inserted="56" running="54" waiting="0" ended="2" meanWaitingTime="0.00" meanTravelTime="77.50" duration="1"/>
    <step time="82.00" loaded="141" inserted="56" running="54" waiting="0" ended="2" meanWaitingTime="0.00" meanTravelTime="77.50" duration="1"/>
    <step time="83.00" loaded="141" inserted="56" running="53" waiting="0" ended="3" meanWaitingTime="0.00" meanTravelTime="77.33" duration="1"/>
    <step time="84.00" loaded="141" inserted="60" running="56" waiting="0" ended="4" meanWaitingTime="0.00" meanTravelTime="77.50" duration="0"/>
    <step time="85.00" loaded="141" inserted="60" running="56" waiting="0" ended="4" meanWaitingTime="0.00" meanTravelTime="77.50" duration="0"/>
    <step time="86.00" loaded="141" inserted="60" running="56" waiting="0" ended="4" meanWaitingTime="0.00" meanTravelTime="77.50" duration="1"/>
    <step time="87.00" loaded="141" inserted="60" running="56" waiting="0" ended="4" meanWaitingTime="0.00" meanTravelTime="77.50" duration="1"/>
    <step time="88.00" loaded="141" inserted="60" running="56" waiting="0" ended="4" meanWaitingTime="0.00" meanTravelTime="77.50" duration="0"/>
    <step time="89.00" loaded="141" inserted="60" running="55" waiting="0" ended="5" meanWaitingTime="0.00" meanTravelTime="77.40" duration="0"/>
    <step time="90.00" loaded="141" inserted="64" running="58" waiting="0" ended="6" meanWaitingTime="0.00" meanTravelTime="77.50" duration="0"/>
    <step time="91.00" loaded="141" inserted="64" running="58" waiting="0" ended="6" meanWaitingTime="0.00" meanTravelTime="77.50" duration="1"/>
    <step time="92.00" loaded="141" inserted="64" running="58" waiting="0" ended="6" meanWaitingTime="0.00" meanTravelTime="77.50" duration="1"/>
    <step time="93.00" loaded="141" inserted="64" running="58" waiting="0" ended="6" meanWaitingTime="0.00" meanTravelTime="77.50" duration="1"/>
    <step time="94.00" loaded="141" inserted="64" running="58" waiting="0" ended="6" meanWaitingTime="0.00" meanTravelTime="77.50" duration="1"/>
    <step time="95.00" loaded="141" inserted="64" running="57" waiting="0" ended="7" meanWaitingTime="0.00" meanTravelTime="77.43" duration="0"/>
    <step time="96.00" loaded="141" inserted="68" running="60" waiting="0" ended="8" meanWaitingTime="0.00" meanTravelTime="77.50" duration="1"/>
    <step time="97.00" loaded="141" inserted="68" running="60" waiting="0" ended="8" meanWaitingTime="0.00" meanTravelTime="77.50" duration="1"/>
    <step time="98.00" loaded="141" inserted="68" running="60" waiting="0" ended="8" meanWaitingTime="0.00" meanTravelTime="77.50" duration="0"/>
    <step time="99.00" loaded="141" inserted="68" running="60" waiting="0" ended="8" meanWaitingTime="0.00" meanTravelTime="77.50" duration="1"/>
    <step time="100.00" loaded="141" inserted="68" running="60" waiting="0" ended="8" meanWaitingTime="0.00" meanTravelTime="77.50" duration="0"/>
    <step time="101.00" loaded="141" inserted="68" running="60" waiting="0" ended="8" meanWaitingTime="0.00" meanTravelTime="77.50" duration="2"/>
    <step time="102.00" loaded="141" inserted="72" running="62" waiting="0" ended="10" meanWaitingTime="0.00" meanTravelTime="77.60" duration="1"/>
    <step time="103.00" loaded="141" inserted="72" running="62" waiting="0" ended="10" meanWaitingTime="0.00" meanTravelTime="77.60" duration="1"/>
    <step time="104.00" loaded="141" inserted="72" running="62" waiting="0" ended="10" meanWaitingTime="0.00" meanTravelTime="77.60" duration="1"/>
    <step time="105.00" loaded="141" inserted="72" running="62" waiting="0" ended="10" meanWaitingTime="0.00" meanTravelTime="77.60" duration="1"/>
    <step time="106.00" loaded="141" inserted="72" running="62" waiting="0" ended="10" meanWaitingTime="0.00" meanTravelTime="77.60" duration="1"/>
    <step time="107.00" loaded="141" inserted="72" running="62" waiting="0" ended="10" meanWaitingTime="0.00" meanTravelTime="77.60" duration="1"/>
    <step time="108.00" loaded="141" inserted="76" running="66" waiting="0" ended="10" meanWaitingTime="0.00" meanTravelTime="77.60" duration="1"/>
    <step time="109.00" loaded="141" inserted="76" running="66" waiting="0" ended="10" meanWaitingTime="0.00" meanTravelTime="77.60" duration="2"/>
    <step time="110.00" loaded="141" inserted="76" running="62" waiting="0" ended="14" meanWaitingTime="0.00" meanTravelTime="85.57" duration="1"/>
    <step time="111.00" loaded="141" inserted="76" running="62" waiting="0" ended="14" meanWaitingTime="0.00" meanTravelTime="85.57" duration="2"/>
    <step time="112.00" loaded="141" inserted="76" running="62" waiting="0" ended="14" meanWaitingTime="0.00" meanTravelTime="85.57" duration="1"/>
    <step time="113.00" loaded="141" inserted="76" running="58" waiting="0" ended="18" meanWaitingTime="0.00" meanTravelTime="88.67" duration="1"/>
    <step time="114.00" loaded="141" inserted="80" running="62" waiting="0" ended="18" meanWaitingTime="0.00" meanTravelTime="88.67" duration="1"/>
    <step time="115.00" loaded="141" inserted="80" running="62" waiting="0" ended="18" meanWaitingTime="0.00" meanTravelTime="88.67" duration="1"/>
    <step time="116.00" loaded="141" inserted="80" running="59" waiting="0" ended="21" meanWaitingTime="0.00" meanTravelTime="88.57" duration="1"/>
    <step time="117.00" loaded="141" inserted="80" running="59" waiting="0" ended="21" meanWaitingTime="0.00" meanTravelTime="88.57" duration="1"/>
    <step time="118.00" loaded="141" inserted="80" running="59" waiting="0" ended="21" meanWaitingTime="0.00" meanTravelTime="88.57" duration="1"/>
    <step time="119.00" loaded="141" inserted="80" running="57" waiting="0" ended="23" meanWaitingTime="0.00" meanTravelTime="88.61" duration="1"/>
    <step time="120.00" loaded="141" inserted="84" running="60" waiting="0" ended="24" meanWaitingTime="0.00" meanTravelTime="88.17" duration="0"/>
    <step time="121.00" loaded="141" inserted="84" running="60" waiting="0" ended="24" meanWaitingTime="0.00" meanTravelTime="88.17" duration="0"/>
    <step time="122.00" loaded="141" inserted="84" running="59" waiting="0" ended="25" meanWaitingTime="0.00" meanTravelTime="88.08" duration="1"/>
    <step time="123.00" loaded="141" inserted="84" running="59" waiting="0" ended="25" meanWaitingTime="0.00" meanTravelTime="88.08" duration="1"/>
    <step time="124.00" loaded="141" inserted="84" running="59" waiting="0" ended="25" meanWaitingTime="0.00" meanTravelTime="88.08" duration="1"/>
    <step time="125.00" loaded="141" inserted="84" running="56" waiting="0" ended="28" meanWaitingTime="0.00" meanTravelTime="87.11" duration="1"/>
    <step time="126.00" loaded="141" inserted="88" running="60" waiting="0" ended="28" meanWaitingTime="0.00" meanTravelTime="87.11" duration="0"/>
    <step time="127.00" loaded="141" inserted="88" running="60" waiting="0" ended="28" meanWaitingTime="0.00" meanTravelTime="87.11" duration="1"/>
    <step time="128.00" loaded="141" inserted="88" running="60" waiting="0" ended="28" meanWaitingTime="0.00" meanTravelTime="87.11" duration="1"/>
    <step time="129.00" loaded="141" inserted="88" running="60" waiting="0" ended="28" meanWaitingTime="0.00" meanTravelTime="87.11" duration="0"/>
    <step time="130.00" loaded="141" inserted="88" running="60" waiting="0" ended="28" meanWaitingTime="0.00" meanTravelTime="87.11" duration="1"/>
    <step time="131.00" loaded="141" inserted="88" running="59" waiting="0" ended="29" meanWaitingTime="0.00" meanTravelTime="86.76" duration="1"/>
    <step time="132.00" loaded="141" inserted="92" running="62" waiting="0" ended="30" meanWaitingTime="0.00" meanTravelTime="86.47" duration="0"/>
    <step time="133.00" loaded="141" inserted="92" running="62" waiting="0" ended="30" meanWaitingTime="0.00" meanTravelTime="86.47" duration="1"/>
    <step time="134.00" loaded="141" inserted="92" running="62" waiting="0" ended="30" meanWaitingTime="0.00" meanTravelTime="86.47" duration="1"/>
    <step time="135.00" loaded="141" inserted="92" running="62" waiting="0" ended="30" meanWaitingTime="0.00" meanTravelTime="86.47" duration="1"/>
    <step time="136.00" loaded="141" inserted="92" running="62" waiting="0" ended="30" meanWaitingTime="0.00" meanTravelTime="86.47" duration="0"/>
    <step time="137.00" loaded="141" inserted="92" running="60" waiting="0" ended="32" meanWaitingTime="0.00" meanTravelTime="85.88" duration="1"/>
    <step time="138.00" loaded="141" inserted="96" running="64" waiting="0" ended="32" meanWaitingTime="0.00" meanTravelTime="85.88" duration="1"/>
    <step time="139.00" loaded="141" inserted="96" running="64" waiting="0" ended="32" meanWaitingTime="0.00" meanTravelTime="85.88" duration="1"/>
    <step time="140.00" loaded="141" inserted="96" running="64" waiting="0" ended="32" meanWaitingTime="0.00" meanTravelTime="85.88" duration="1"/>
    <step time="141.00" loaded="141" inserted="96" running="64" waiting="0" ended="32" meanWaitingTime="0.00" meanTravelTime="85.88" duration="1"/>
    <step time="142.00" loaded="141" inserted="96" running="64" waiting="0" ended="32" meanWaitingTime="0.00" meanTravelTime="85.88" duration="1"/>
    <step time="143.00" loaded="141" inserted="96" running="64" waiting="0" ended="32" meanWaitingTime="0.00" meanTravelTime="85.88" duration="1"/>
    <step time="144.00" loaded="141" inserted="100" running="68" waiting="0" ended="32" meanWaitingTime="0.00" meanTravelTime="85.88" duration="1"/>
    <step time="145.00" loaded="141" inserted="100" running="66" waiting="0" ended="34" meanWaitingTime="0.00" meanTravelTime="87.06" duration="1"/>
    <step time="146.00" loaded="141" inserted="100" running="64" waiting="0" ended="36" meanWaitingTime="0.00" meanTravelTime="88.67" duration="0"/>
    <step time="147.00" loaded="141" inserted="100" running="64" waiting="0" ended="36" meanWaitingTime="0.00" meanTravelTime="88.67" duration="1"/>
    <step time="148.00" loaded="141" inserted="100" running="61" waiting="0" ended="39" meanWaitingTime="0.00" meanTravelTime="89.54" duration="1"/>
    <step time="149.00" loaded="141" inserted="100" running="60" waiting="0" ended="40" meanWaitingTime="0.00" meanTravelTime="89.97" duration="1"/>
    <step time="150.00" loaded="141" inserted="104" running="64" waiting="0" ended="40" meanWaitingTime="0.00" meanTravelTime="89.97" duration="1"/>
    <step time="151.00" loaded="141" inserted="104" running="61" waiting="0" ended="43" meanWaitingTime="0.00" meanTravelTime="90.05" duration="1"/>
    <step time="152.00" loaded="141" inserted="104" running="60" waiting="0" ended="44" meanWaitingTime="0.00" meanTravelTime="90.23" duration="1"/>
    <step time="153.00" loaded="141" inserted="104" running="60" waiting="0" ended="44" meanWaitingTime="0.00" meanTravelTime="90.23" duration="0"/>
    <step time="154.00" loaded="141" inserted="104" running="57" waiting="0" ended="47" meanWaitingTime="0.00" meanTravelTime="90.09" duration="1"/>
    <step time="155.00" loaded="141" inserted="104" running="56" waiting="0" ended="48" meanWaitingTime="0.00" meanTravelTime="90.19" duration="1"/>
    <step time="156.00" loaded="141" inserted="108" running="59" waiting="0" ended="49" meanWaitingTime="0.00" meanTravelTime="89.94" duration="1"/>
    <step time="157.00" loaded="141" inserted="108" running="58" waiting="0" ended="50" meanWaitingTime="0.00" meanTravelTime="89.72" duration="1"/>
    <step time="158.00" loaded="141" inserted="108" running="58" waiting="0" ended="50" meanWaitingTime="0.00" meanTravelTime="89.72" duration="0"/>
    <step time="159.00" loaded="141" inserted="108" running="58" waiting="0" ended="50" meanWaitingTime="0.00" meanTravelTime="89.72" duration="1"/>
    <step time="160.00" loaded="141" inserted="108" running="58" waiting="0" ended="50" meanWaitingTime="0.00" meanTravelTime="89.72" duration="0"/>
    <step time="161.00" loaded="141" inserted="108" running="58" waiting="0" ended="50" meanWaitingTime="0.00" meanTravelTime="89.72" duration="0"/>
    <step time="162.00" loaded="141" inserted="112" running="60" waiting="0" ended="52" meanWaitingTime="0.00" meanTravelTime="89.27" duration="1"/>
    <step time="163.00" loaded="141" inserted="112" running="60" waiting="0" ended="52" meanWaitingTime="0.00" meanTravelTime="89.27" duration="1"/>
    <step time="164.00" loaded="141" inserted="112" running="60" waiting="0" ended="52" meanWaitingTime="0.00" meanTravelTime="89.27" duration="0"/>
    <step time="165.00" loaded="141" inserted="112" running="60" waiting="0" ended="52" meanWaitingTime="0.00" meanTravelTime="89.27" duration="1"/>
    <step time="166.00" loaded="141" inserted="112" running="60" waiting="0" ended="52" meanWaitingTime="0.00" meanTravelTime="89.27" duration="1"/>
    <step time="167.00" loaded="141" inserted="112" running="58" waiting="0" ended="54" meanWaitingTime="0.00" meanTravelTime="88.81" duration="1"/>
    <step time="168.00" loaded="141" inserted="116" running="62" waiting="0" ended="54" meanWaitingTime="0.00" meanTravelTime="88.81" duration="1"/>
    <step time="169.00" loaded="141" inserted="116" running="62" waiting="0" ended="54" meanWaitingTime="0.00" meanTravelTime="88.81" duration="0"/>
    <step time="170.00" loaded="141" inserted="116" running="62" waiting="0" ended="54" meanWaitingTime="0.00" meanTravelTime="88.81" duration="0"/>
    <step time="171.00" loaded="141" inserted="116" running="62" waiting="0" ended="54" meanWaitingTime="0.00" meanTravelTime="88.81" duration="1"/>
    <step time="172.00" loaded="141" inserted="116" running="62" waiting="0" ended="54" meanWaitingTime="0.00" meanTravelTime="88.81" duration="1"/>
    <step time="173.00" loaded="141" inserted="116" running="62" waiting="0" ended="54" meanWaitingTime="0.00" meanTravelTime="88.81" duration="0"/>
    <step time="174.00" loaded="141" inserted="120" running="66" waiting="0" ended="54" meanWaitingTime="0.00" meanTravelTime="88.81" duration="1"/>
    <step time="175.00" loaded="141" inserted="120" running="64" waiting="0" ended="56" meanWaitingTime="0.00" meanTravelTime="88.46" duration="0"/>
    <step time="176.00" loaded="141" inserted="120" running="64" waiting="0" ended="56" meanWaitingTime="0.00" meanTravelTime="88.46" duration="1"/>
    <step time="177.00" loaded="141" inserted="120" running="64" waiting="0" ended="56" meanWaitingTime="0.00" meanTravelTime="88.46" duration="1"/>
    <step time="178.00" loaded="141" inserted="120" running="64" waiting="0" ended="56" meanWaitingTime="0.00" meanTravelTime="88.46" duration="1"/>
    <step time="179.00" loaded="141" inserted="120" running="64" waiting="0" ended="56" meanWaitingTime="0.00" meanTravelTime="88.46" duration="1"/>
    <step time="180.00" loaded="141" inserted="124" running="65" waiting="0" ended="59" meanWaitingTime="0.00" meanTravelTime="89.66" duration="1"/>
    <step time="181.00" loaded="141" inserted="124" running="64" waiting="0" ended="60" meanWaitingTime="0.00" meanTravelTime="89.98" duration="1"/>
    <step time="182.00" loaded="141" inserted="124" running="64" waiting="0" ended="60" meanWaitingTime="0.00" meanTravelTime="89.98" duration="0"/>
    <step time="183.00" loaded="141" inserted="124" running="62" waiting="0" ended="62" meanWaitingTime="0.00" meanTravelTime="90.47" duration="1"/>
    <step time="184.00" loaded="141" inserted="124" running="60" waiting="0" ended="64" meanWaitingTime="0.00" meanTravelTime="90.58" duration="1"/>
    <step time="185.00" loaded="141" inserted="124" running="60" waiting="0" ended="64" meanWaitingTime="0.00" meanTravelTime="90.58" duration="1"/>
    <step time="186.00" loaded="141" inserted="128" running="61" waiting="0" ended="67" meanWaitingTime="0.00" meanTravelTime="90.73" duration="1"/>
    <step time="187.00" loaded="141" inserted="128" running="60" waiting="0" ended="68" meanWaitingTime="0.00" meanTravelTime="90.65" duration="1"/>
    <step time="188.00" loaded="141" inserted="128" running="60" waiting="0" ended="68" meanWaitingTime="0.00" meanTravelTime="90.65" duration="0"/>
    <step time="189.00" loaded="141" inserted="128" running="58" waiting="0" ended="70" meanWaitingTime="0.00" meanTravelTime="90.80" duration="1"/>
    <step time="190.00" loaded="141" inserted="128" running="56" waiting="0" ended="72" meanWaitingTime="0.00" meanTravelTime="90.56" duration="1"/>
    <step time="191.00" loaded="141" inserted="128" running="56" waiting="0" ended="72" meanWaitingTime="0.00" meanTravelTime="90.56" duration="1"/>
    <step time="192.00" loaded="141" inserted="132" running="58" waiting="0" ended="74" meanWaitingTime="0.00" meanTravelTime="90.22" duration="1"/>