<?xml version="1.0" encoding="UTF-8"?>

<!-- generated on 4/25/2016 12:11:18 AM by SUMO gui Version 0.24.0
<?xml version="1.0" encoding="UTF-8"?>

<configuration xmlns:xsi="http://www.w3.org/2001/XMLSchema-instance" xsi:noNamespaceSchemaLocation="http://sumo.dlr.de/xsd/sumo-gui.exeConfiguration.xsd">

    <input>
        <net-file value="C:\Users\Xavier\Dropbox\Courses\Fall\ME%20199%20-%20Final%20Year%20Project\Sumo%20Projects\Huntington%20Colorado\Version%205\huntingtonColorado.net.xml"/>
        <route-files value="C:\Users\Xavier\Dropbox\Courses\Fall\ME%20199%20-%20Final%20Year%20Project\Sumo%20Projects\Huntington%20Colorado\Version%205\huntingtonColorado_exp.rou.xml"/>
        <additional-files value="C:\Users\Xavier\Dropbox\Courses\Fall\ME%20199%20-%20Final%20Year%20Project\Sumo%20Projects\Huntington%20Colorado\Version%205\huntingtonColoradoMyAdd.add.xml"/>
    </input>

    <output>
        <tripinfo-output value="tripinfo.xml"/>
        <save-state.prefix value="C:\Users\Xavier\Dropbox\Courses\Fall\ME%20199%20-%20Final%20Year%20Project\Sumo%20Projects\Huntington%20Colorado\Version%205\state"/>
    </output>

    <time>
        <begin value="0"/>
    </time>

    <processing>
        <time-to-teleport value="-1"/>
    </processing>

    <emissions>
        <phemlight-path value="C:\Users\Xavier\Dropbox\Courses\Fall\ME%20199%20-%20Final%20Year%20Project\Sumo%20Projects\Huntington%20Colorado\Version%205\./PHEMlight/"/>
    </emissions>

    <traci_server>
        <remote-port value="8873"/>
    </traci_server>

</configuration>
-->

<meandata xmlns:xsi="http://www.w3.org/2001/XMLSchema-instance" xsi:noNamespaceSchemaLocation="http://sumo.dlr.de/xsd/meandata_file.xsd">
    <interval begin="0.00" end="500.00" id="id_test1">
        <edge id="10to9" sampledSeconds="5.40" traveltime="0.97" density="0.83" occupancy="0.21" waitingTime="0.00" speed="13.34" departed="0" arrived="0" entered="4" left="4" laneChangedFrom="0" laneChangedTo="0"/>
        <edge id="11to10" sampledSeconds="5.93" traveltime="1.11" density="0.80" occupancy="0.20" waitingTime="0.00" speed="13.41" departed="0" arrived="0" entered="4" left="4" laneChangedFrom="0" laneChangedTo="0"/>
        <edge id="12to11" sampledSeconds="7.07" traveltime="1.40" density="0.74" occupancy="0.18" waitingTime="0.00" speed="13.69" departed="0" arrived="0" entered="4" left="4" laneChangedFrom="0" laneChangedTo="0"/>
        <edge id="13to12" sampledSeconds="6.88" traveltime="1.34" density="0.78" occupancy="0.19" waitingTime="0.00" speed="13.16" departed="0" arrived="0" entered="4" left="4" laneChangedFrom="0" laneChangedTo="0"/>
        <edge id="14to1" sampledSeconds="1395.61" traveltime="2.80" density="1107.63" occupancy="110.76" waitingTime="1209.00" speed="0.90" departed="0" arrived="0" entered="167" left="167" laneChangedFrom="3" laneChangedTo="3"/>
        <edge id="14to2" sampledSeconds="503.05" traveltime="16.98" density="4.48" occupancy="1.12" waitingTime="0.00" speed="13.23" departed="0" arrived="29" entered="31" left="0" laneChangedFrom="5" laneChangedTo="5"/>
        <edge id="15to1" sampledSeconds="288.53" traveltime="4.48" density="146.09" occupancy="18.26" waitingTime="234.00" speed="0.88" departed="0" arrived="0" entered="29" left="28" laneChangedFrom="0" laneChangedTo="0"/>
        <edge id="15to6" sampledSeconds="1061.43" traveltime="6.44" density="26.23" occupancy="6.56" waitingTime="0.00" speed="12.57" departed="0" arrived="0" entered="157" left="155" laneChangedFrom="2" laneChangedTo="2"/>
        <edge id="16to1" sampledSeconds="1720.08" traveltime="21.63" density="315.03" occupancy="52.51" waitingTime="1464.00" speed="0.50" departed="0" arrived="0" entered="57" left="53" laneChangedFrom="0" laneChangedTo="0"/>
        <edge id="16to4" sampledSeconds="726.94" traveltime="9.31" density="11.94" occupancy="1.99" waitingTime="0.00" speed="13.08" departed="0" arrived="0" entered="75" left="75" laneChangedFrom="30" laneChangedTo="30"/>
        <edge id="17to1" sampledSeconds="1936.31" traveltime="19.49" density="309.31" occupancy="38.66" waitingTime="1593.00" speed="0.64" departed="0" arrived="0" entered="71" left="71" laneChangedFrom="0" laneChangedTo="0"/>
        <edge id="17to3" sampledSeconds="787.27" traveltime="14.83" density="8.06" occupancy="2.02" waitingTime="0.00" speed="13.17" departed="0" arrived="51" entered="52" left="0" laneChangedFrom="29" laneChangedTo="29"/>
        <edge id="18to19" sampledSeconds="3073.87" traveltime="26.45" density="76.14" occupancy="19.04" waitingTime="1202.00" speed="3.05" departed="0" arrived="0" entered="118" left="99" laneChangedFrom="15" laneChangedTo="15"/>
        <edge id="18to7" sampledSeconds="3835.10" traveltime="98.01" density="5.90" occupancy="1.48" waitingTime="0.00" speed="13.25" departed="0" arrived="0" entered="39" left="38" laneChangedFrom="3" laneChangedTo="3"/>
        <edge id="19to18" sampledSeconds="266.54" traveltime="6.44" density="6.60" occupancy="1.65" waitingTime="0.00" speed="12.55" departed="0" arrived="0" entered="39" left="39" laneChangedFrom="8" laneChangedTo="8"/>
        <edge id="19to20" sampledSeconds="169.13" traveltime="8.53" density="3.07" occupancy="1.54" waitingTime="0.00" speed="12.91" departed="0" arrived="19" entered="19" left="0" laneChangedFrom="0" laneChangedTo="0"/>
        <edge id="19to21" sampledSeconds="1490.88" traveltime="15.11" density="43.18" occupancy="10.80" waitingTime="472.00" speed="4.57" departed="0" arrived="0" entered="92" left="92" laneChangedFrom="4" laneChangedTo="4"/>
        <edge id="1to14" sampledSeconds="21.64" traveltime="0.23" density="17.18" occupancy="4.29" waitingTime="0.00" speed="10.77" departed="0" arrived="0" entered="31" left="31" laneChangedFrom="0" laneChangedTo="0"/>
        <edge id="1to15" sampledSeconds="128.55" traveltime="0.38" density="60.78" occupancy="15.19" waitingTime="0.00" speed="11.27" departed="0" arrived="0" entered="157" left="157" laneChangedFrom="0" laneChangedTo="0"/>
        <edge id="1to16" sampledSeconds="122.76" traveltime="1.12" density="22.48" occupancy="3.75" waitingTime="0.00" speed="9.74" departed="0" arrived="0" entered="76" left="75" laneChangedFrom="0" laneChangedTo="0"/>
        <edge id="1to17" sampledSeconds="86.23" traveltime="1.19" density="13.67" occupancy="3.42" waitingTime="0.00" speed="10.63" departed="0" arrived="0" entered="52" left="52" laneChangedFrom="0" laneChangedTo="0"/>
        <edge id="20to19" sampledSeconds="932.32" traveltime="54.89" density="16.94" occupancy="8.47" waitingTime="629.00" speed="2.01" departed="17" arrived="0" entered="0" left="17" laneChangedFrom="0" laneChangedTo="0"/>
        <edge id="21to19" sampledSeconds="740.66" traveltime="19.79" density="21.45" occupancy="3.58" waitingTime="357.00" speed="3.49" departed="0" arrived="0" entered="35" left="35" laneChangedFrom="9" laneChangedTo="9"/>
        <edge id="21to22" sampledSeconds="184.96" traveltime="9.41" density="3.05" occupancy="1.52" waitingTime="0.00" speed="12.91" departed="0" arrived="19" entered="19" left="0" laneChangedFrom="0" laneChangedTo="0"/>
        <edge id="21to23" sampledSeconds="1150.47" traveltime="13.31" density="13.32" occupancy="3.33" waitingTime="0.00" speed="12.98" departed="0" arrived="0" entered="84" left="84" laneChangedFrom="1" laneChangedTo="1"/>
        <edge id="22to21" sampledSeconds="1063.77" traveltime="62.63" density="17.51" occupancy="8.76" waitingTime="717.00" speed="1.94" departed="17" arrived="0" entered="0" left="17" laneChangedFrom="0" laneChangedTo="0"/>
        <edge id="23to21" sampledSeconds="1044.75" traveltime="34.39" density="12.09" occupancy="2.02" waitingTime="540.00" speed="5.02" departed="0" arrived="0" entered="30" left="29" laneChangedFrom="6" laneChangedTo="6"/>
        <edge id="23to24" sampledSeconds="1245.92" traveltime="15.14" density="12.37" occupancy="3.09" waitingTime="0.00" speed="13.30" departed="0" arrived="0" entered="84" left="75" laneChangedFrom="0" laneChangedTo="0"/>
        <edge id="24to23" sampledSeconds="465.01" traveltime="15.12" density="4.62" occupancy="1.15" waitingTime="0.00" speed="13.32" departed="0" arrived="0" entered="30" left="30" laneChangedFrom="3" laneChangedTo="3"/>
        <edge id="24to25" sampledSeconds="513.82" traveltime="6.64" density="11.63" occupancy="2.91" waitingTime="0.00" speed="13.31" departed="0" arrived="0" entered="75" left="72" laneChangedFrom="0" laneChangedTo="0"/>
        <edge id="25to24" sampledSeconds="209.57" traveltime="6.61" density="4.74" occupancy="1.19" waitingTime="0.00" speed="13.37" departed="0" arrived="0" entered="30" left="30" laneChangedFrom="0" laneChangedTo="0"/>
        <edge id="25to26" sampledSeconds="426.07" traveltime="5.70" density="11.44" occupancy="2.86" waitingTime="0.00" speed="13.08" departed="0" arrived="0" entered="72" left="70" laneChangedFrom="1" laneChangedTo="1"/>
        <edge id="26to25" sampledSeconds="178.54" traveltime="5.58" density="4.79" occupancy="1.20" waitingTime="0.00" speed="13.36" departed="0" arrived="0" entered="30" left="30" laneChangedFrom="0" laneChangedTo="0"/>
        <edge id="26to27" sampledSeconds="381.39" traveltime="5.05" density="11.98" occupancy="2.99" waitingTime="0.00" speed="12.61" departed="0" arrived="0" entered="70" left="70" laneChangedFrom="6" laneChangedTo="6"/>
        <edge id="27to26" sampledSeconds="154.75" traveltime="4.78" density="4.86" occupancy="1.22" waitingTime="0.00" speed="13.31" departed="0" arrived="0" entered="30" left="30" laneChangedFrom="0" laneChangedTo="0"/>
        <edge id="27to28" sampledSeconds="262.35" traveltime="3.36" density="12.21" occupancy="3.05" waitingTime="0.00" speed="12.80" departed="0" arrived="0" entered="70" left="70" laneChangedFrom="0" laneChangedTo="0"/>
        <edge id="28to27" sampledSeconds="107.08" traveltime="3.20" density="4.99" occupancy="1.25" waitingTime="0.00" speed="13.44" departed="0" arrived="0" entered="30" left="30" laneChangedFrom="2" laneChangedTo="2"/>
        <edge id="28to39" sampledSeconds="223.16" traveltime="2.81" density="12.16" occupancy="3.04" waitingTime="0.00" speed="13.08" departed="0" arrived="0" entered="70" left="70" laneChangedFrom="3" laneChangedTo="3"/>
        <edge id="29to30" sampledSeconds="2072.43" traveltime="27.27" density="121.19" occupancy="20.20" waitingTime="1556.00" speed="1.25" departed="0" arrived="0" entered="69" left="62" laneChangedFrom="4" laneChangedTo="4"/>
        <edge id="29to39" sampledSeconds="364.05" traveltime="11.37" density="4.82" occupancy="1.20" waitingTime="0.00" speed="13.29" departed="0" arrived="0" entered="31" left="31" laneChangedFrom="0" laneChangedTo="0"/>
        <edge id="2to14" sampledSeconds="9662.68" traveltime="57.89" density="85.99" occupancy="8.60" waitingTime="3578.00" speed="3.88" departed="167" arrived="0" entered="0" left="167" laneChangedFrom="233" laneChangedTo="233"/>
        <edge id="30to29" sampledSeconds="95.05" traveltime="2.67" density="5.57" occupancy="1.39" waitingTime="0.00" speed="12.75" departed="0" arrived="0" entered="31" left="31" laneChangedFrom="0" laneChangedTo="0"/>
        <edge id="30to31" sampledSeconds="107.51" traveltime="1.62" density="10.94" occupancy="2.74" waitingTime="0.00" speed="12.15" departed="0" arrived="0" entered="53" left="53" laneChangedFrom="0" laneChangedTo="0"/>
        <edge id="30to32" sampledSeconds="12.16" traveltime="0.76" density="2.96" occupancy="0.74" waitingTime="0.00" speed="10.88" departed="0" arrived="0" entered="10" left="10" laneChangedFrom="0" laneChangedTo="0"/>
        <edge id="31to30" sampledSeconds="152.46" traveltime="8.82" density="15.69" occupancy="2.62" waitingTime="102.00" speed="2.20" departed="0" arrived="0" entered="14" left="13" laneChangedFrom="1" laneChangedTo="1"/>
        <edge id="31to34" sampledSeconds="282.35" traveltime="5.01" density="8.82" occupancy="2.20" waitingTime="0.00" speed="12.78" departed="0" arrived="0" entered="53" left="50" laneChangedFrom="1" laneChangedTo="1"/>
        <edge id="32to30" sampledSeconds="276.23" traveltime="9.04" density="67.13" occupancy="16.78" waitingTime="228.00" speed="0.91" departed="0" arrived="0" entered="19" left="19" laneChangedFrom="0" laneChangedTo="0"/>
        <edge id="32to33" sampledSeconds="74.54" traveltime="7.13" density="1.60" occupancy="0.40" waitingTime="0.00" speed="13.10" departed="0" arrived="10" entered="10" left="0" laneChangedFrom="0" laneChangedTo="0"/>
        <edge id="33to32" sampledSeconds="324.35" traveltime="17.09" density="6.95" occupancy="1.74" waitingTime="92.00" speed="5.46" departed="19" arrived="0" entered="0" left="19" laneChangedFrom="1" laneChangedTo="1"/>
        <edge id="34to31" sampledSeconds="79.30" traveltime="5.12" density="2.48" occupancy="0.41" waitingTime="0.00" speed="12.48" departed="0" arrived="0" entered="15" left="14" laneChangedFrom="0" laneChangedTo="0"/>
        <edge id="34to35" sampledSeconds="1579.01" traveltime="35.99" density="7.27" occupancy="1.82" waitingTime="0.00" speed="12.07" departed="0" arrived="0" entered="50" left="33" laneChangedFrom="9" laneChangedTo="9"/>
        <edge id="35to34" sampledSeconds="493.69" traveltime="32.54" density="2.27" occupancy="0.57" waitingTime="0.00" speed="13.35" departed="0" arrived="0" entered="15" left="15" laneChangedFrom="14" laneChangedTo="14"/>
        <edge id="35to36" sampledSeconds="212.14" traveltime="6.48" density="6.06" occupancy="1.51" waitingTime="0.00" speed="10.82" departed="0" arrived="0" entered="33" left="29" laneChangedFrom="6" laneChangedTo="6"/>
        <edge id="36to35" sampledSeconds="84.10" traveltime="5.23" density="2.40" occupancy="0.60" waitingTime="0.00" speed="13.37" departed="0" arrived="0" entered="15" left="15" laneChangedFrom="0" laneChangedTo="0"/>
        <edge id="36to37" sampledSeconds="153.65" traveltime="5.19" density="4.89" occupancy="1.22" waitingTime="0.00" speed="12.09" departed="0" arrived="0" entered="29" left="26" laneChangedFrom="3" laneChangedTo="3"/>
        <edge id="37to36" sampledSeconds="76.33" traveltime="4.71" density="2.43" occupancy="0.61" waitingTime="0.00" speed="13.32" departed="0" arrived="0" entered="15" left="15" laneChangedFrom="0" laneChangedTo="0"/>
        <edge id="37to38" sampledSeconds="101.72" traveltime="3.61" density="4.41" occupancy="1.10" waitingTime="0.00" speed="12.77" departed="0" arrived="0" entered="26" left="25" laneChangedFrom="1" laneChangedTo="1"/>
        <edge id="38to37" sampledSeconds="57.66" traveltime="3.47" density="2.50" occupancy="0.62" waitingTime="0.00" speed="13.30" departed="0" arrived="0" entered="15" left="15" laneChangedFrom="0" laneChangedTo="0"/>
        <edge id="38to40" sampledSeconds="449.75" traveltime="18.09" density="13.97" occupancy="2.33" waitingTime="267.00" speed="3.56" departed="0" arrived="0" entered="25" left="21" laneChangedFrom="6" laneChangedTo="6"/>
        <edge id="39to28" sampledSeconds="95.14" traveltime="2.75" density="5.18" occupancy="1.30" waitingTime="0.00" speed="13.33" departed="0" arrived="0" entered="31" left="30" laneChangedFrom="1" laneChangedTo="1"/>
        <edge id="39to29" sampledSeconds="1913.55" traveltime="26.48" density="25.31" occupancy="4.22" waitingTime="692.00" speed="5.71" departed="0" arrived="0" entered="70" left="69" laneChangedFrom="9" laneChangedTo="9"/>
        <edge id="3to17" sampledSeconds="5023.39" traveltime="70.79" density="51.47" occupancy="6.43" waitingTime="2825.27" speed="2.76" departed="71" arrived="0" entered="0" left="71" laneChangedFrom="86" laneChangedTo="86"/>
        <edge id="40to38" sampledSeconds="79.42" traveltime="4.91" density="2.47" occupancy="0.62" waitingTime="0.00" speed="13.11" departed="0" arrived="0" entered="15" left="15" laneChangedFrom="1" laneChangedTo="1"/>
        <edge id="40to41" sampledSeconds="82.71" traveltime="1.99" density="7.12" occupancy="1.19" waitingTime="0.00" speed="11.66" departed="0" arrived="35" entered="35" left="0" laneChangedFrom="1" laneChangedTo="1"/>
        <edge id="40to42" sampledSeconds="304.11" traveltime="15.34" density="5.32" occupancy="1.33" waitingTime="32.00" speed="7.46" departed="0" arrived="0" entered="19" left="19" laneChangedFrom="5" laneChangedTo="5"/>
        <edge id="42to40" sampledSeconds="1554.17" traveltime="27.38" density="27.18" occupancy="3.40" waitingTime="721.00" speed="4.18" departed="0" arrived="0" entered="55" left="51" laneChangedFrom="34" laneChangedTo="34"/>
        <edge id="42to43" sampledSeconds="455.31" traveltime="19.16" density="77.50" occupancy="12.92" waitingTime="372.00" speed="0.61" departed="0" arrived="0" entered="19" left="15" laneChangedFrom="1" laneChangedTo="1"/>
        <edge id="43to42" sampledSeconds="82.15" traveltime="1.05" density="13.98" occupancy="2.33" waitingTime="0.00" speed="11.21" departed="0" arrived="0" entered="55" left="55" laneChangedFrom="6" laneChangedTo="6"/>
        <edge id="43to45" sampledSeconds="670.53" traveltime="7.47" density="14.05" occupancy="3.51" waitingTime="0.00" speed="12.77" departed="0" arrived="86" entered="86" left="0" laneChangedFrom="0" laneChangedTo="0"/>
        <edge id="43to46" sampledSeconds="763.98" traveltime="25.05" density="5.17" occupancy="1.29" waitingTime="17.00" speed="11.81" departed="0" arrived="0" entered="30" left="30" laneChangedFrom="6" laneChangedTo="6"/>
        <edge id="44to43" sampledSeconds="3704.00" traveltime="45.77" density="65.38" occupancy="6.54" waitingTime="2155.00" speed="2.48" departed="81" arrived="0" entered="0" left="81" laneChangedFrom="179" laneChangedTo="179"/>
        <edge id="45to43" sampledSeconds="1128.41" traveltime="45.18" density="23.65" occupancy="5.91" waitingTime="717.00" speed="2.11" departed="25" arrived="0" entered="0" left="25" laneChangedFrom="25" laneChangedTo="25"/>
        <edge id="46to43" sampledSeconds="3533.97" traveltime="59.64" density="23.90" occupancy="5.97" waitingTime="1564.00" speed="4.96" departed="0" arrived="0" entered="59" left="50" laneChangedFrom="21" laneChangedTo="21"/>
        <edge id="46to47" sampledSeconds="751.75" traveltime="19.14" density="101.04" occupancy="12.63" waitingTime="595.00" speed="0.78" departed="0" arrived="0" entered="30" left="28" laneChangedFrom="1" laneChangedTo="1"/>
        <edge id="47to46" sampledSeconds="92.44" traveltime="1.17" density="12.42" occupancy="3.11" waitingTime="0.00" speed="12.69" departed="0" arrived="0" entered="59" left="59" laneChangedFrom="0" laneChangedTo="0"/>
        <edge id="47to48" sampledSeconds="492.06" traveltime="8.63" density="8.80" occupancy="2.20" waitingTime="0.00" speed="12.96" departed="0" arrived="55" entered="55" left="0" laneChangedFrom="0" laneChangedTo="0"/>
        <edge id="47to49" sampledSeconds="645.58" traveltime="9.02" density="11.12" occupancy="2.78" waitingTime="0.00" speed="12.88" departed="0" arrived="69" entered="69" left="0" laneChangedFrom="0" laneChangedTo="0"/>
        <edge id="47to50" sampledSeconds="86.03" traveltime="1.44" density="9.38" occupancy="2.34" waitingTime="0.00" speed="12.76" departed="0" arrived="0" entered="47" left="47" laneChangedFrom="3" laneChangedTo="3"/>
        <edge id="48to47" sampledSeconds="3744.47" traveltime="49.97" density="66.96" occupancy="6.70" waitingTime="2355.00" speed="2.24" departed="75" arrived="0" entered="0" left="75" laneChangedFrom="115" laneChangedTo="115"/>
        <edge id="49to47" sampledSeconds="3655.52" traveltime="45.17" density="62.96" occupancy="6.30" waitingTime="2125.00" speed="2.57" departed="81" arrived="0" entered="0" left="81" laneChangedFrom="113" laneChangedTo="113"/>
        <edge id="4to13" sampledSeconds="8.12" traveltime="1.66" density="0.74" occupancy="0.18" waitingTime="0.00" speed="13.30" departed="0" arrived="0" entered="4" left="4" laneChangedFrom="0" laneChangedTo="0"/>
        <edge id="4to16" sampledSeconds="9895.47" traveltime="137.17" density="162.51" occupancy="27.09" waitingTime="7117.00" speed="0.89" departed="0" arrived="0" entered="75" left="57" laneChangedFrom="0" laneChangedTo="0"/>
        <edge id="4to5" sampledSeconds="1132.56" traveltime="15.80" density="10.78" occupancy="1.80" waitingTime="0.00" speed="13.30" departed="0" arrived="70" entered="71" left="0" laneChangedFrom="22" laneChangedTo="22"/>
        <edge id="50to47" sampledSeconds="1830.60" traveltime="28.89" density="199.52" occupancy="33.25" waitingTime="1453.00" speed="0.64" departed="0" arrived="0" entered="55" left="46" laneChangedFrom="4" laneChangedTo="4"/>
        <edge id="50to51" sampledSeconds="784.77" traveltime="16.31" density="7.47" occupancy="1.87" waitingTime="0.00" speed="12.88" departed="0" arrived="0" entered="47" left="47" laneChangedFrom="11" laneChangedTo="11"/>
        <edge id="51to50" sampledSeconds="2578.60" traveltime="40.41" density="24.54" occupancy="6.14" waitingTime="926.00" speed="5.20" departed="0" arrived="0" entered="63" left="55" laneChangedFrom="11" laneChangedTo="11"/>
        <edge id="51to52" sampledSeconds="771.75" traveltime="14.13" density="54.56" occupancy="9.09" waitingTime="508.00" speed="2.00" departed="0" arrived="0" entered="47" left="45" laneChangedFrom="6" laneChangedTo="6"/>
        <edge id="52to51" sampledSeconds="169.58" traveltime="2.29" density="11.99" occupancy="3.00" waitingTime="0.00" speed="12.37" departed="0" arrived="0" entered="63" left="63" laneChangedFrom="2" laneChangedTo="2"/>
        <edge id="52to53" sampledSeconds="107.44" traveltime="4.61" density="3.66" occupancy="1.83" waitingTime="0.00" speed="12.72" departed="0" arrived="22" entered="22" left="0" laneChangedFrom="0" laneChangedTo="0"/>
        <edge id="52to54" sampledSeconds="55.58" traveltime="3.14" density="2.80" occupancy="1.40" waitingTime="0.00" speed="12.63" departed="0" arrived="16" entered="16" left="0" laneChangedFrom="0" laneChangedTo="0"/>
        <edge id="52to55" sampledSeconds="139.66" traveltime="2.72" density="9.66" occupancy="2.41" waitingTime="0.00" speed="10.64" departed="0" arrived="0" entered="44" left="44" laneChangedFrom="3" laneChangedTo="3"/>
        <edge id="53to52" sampledSeconds="773.33" traveltime="45.57" density="26.37" occupancy="6.59" waitingTime="553.00" speed="1.29" departed="17" arrived="0" entered="0" left="17" laneChangedFrom="3" laneChangedTo="3"/>
        <edge id="54to52" sampledSeconds="810.30" traveltime="47.79" density="40.82" occupancy="10.21" waitingTime="588.00" speed="0.83" departed="17" arrived="0" entered="0" left="17" laneChangedFrom="1" laneChangedTo="1"/>
        <edge id="55to52" sampledSeconds="740.70" traveltime="9.45" density="51.22" occupancy="8.54" waitingTime="458.00" speed="3.06" departed="0" arrived="0" entered="67" left="66" laneChangedFrom="4" laneChangedTo="4"/>
        <edge id="55to56" sampledSeconds="814.72" traveltime="18.12" density="7.22" occupancy="1.80" waitingTime="0.00" speed="12.46" departed="0" arrived="0" entered="44" left="44" laneChangedFrom="11" laneChangedTo="11"/>
        <edge id="56to55" sampledSeconds="1218.66" traveltime="17.79" density="10.80" occupancy="2.70" waitingTime="0.00" speed="12.68" departed="0" arrived="0" entered="67" left="67" laneChangedFrom="14" laneChangedTo="14"/>
        <edge id="56to57" sampledSeconds="490.96" traveltime="9.87" density="26.09" occupancy="3.26" waitingTime="248.00" speed="3.82" departed="0" arrived="0" entered="44" left="44" laneChangedFrom="11" laneChangedTo="11"/>
        <edge id="57to56" sampledSeconds="234.37" traveltime="3.09" density="12.45" occupancy="3.11" waitingTime="0.00" speed="12.19" departed="0" arrived="0" entered="67" left="67" laneChangedFrom="1" laneChangedTo="1"/>
        <edge id="57to58" sampledSeconds="86.65" traveltime="3.37" density="4.07" occupancy="1.02" waitingTime="0.00" speed="12.63" departed="0" arrived="0" entered="23" left="23" laneChangedFrom="0" laneChangedTo="0"/>
        <edge id="57to60" sampledSeconds="158.66" traveltime="2.91" density="8.70" occupancy="2.18" waitingTime="0.00" speed="12.55" departed="0" arrived="0" entered="48" left="48" laneChangedFrom="0" laneChangedTo="0"/>
        <edge id="57to62" sampledSeconds="340.56" traveltime="4.86" density="10.90" occupancy="2.72" waitingTime="0.00" speed="12.85" departed="0" arrived="0" entered="65" left="65" laneChangedFrom="6" laneChangedTo="6"/>
        <edge id="58to57" sampledSeconds="1824.57" traveltime="46.65" density="85.70" occupancy="14.28" waitingTime="1368.00" speed="0.91" departed="0" arrived="0" entered="35" left="35" laneChangedFrom="12" laneChangedTo="12"/>
        <edge id="58to59" sampledSeconds="100.35" traveltime="4.08" density="3.72" occupancy="0.93" waitingTime="0.00" speed="13.24" departed="0" arrived="23" entered="23" left="0" laneChangedFrom="0" laneChangedTo="0"/>
        <edge id="59to58" sampledSeconds="264.38" traveltime="7.57" density="9.80" occupancy="1.63" waitingTime="0.00" speed="7.13" departed="35" arrived="0" entered="0" left="35" laneChangedFrom="11" laneChangedTo="11"/>
        <edge id="5to4" sampledSeconds="2658.61" traveltime="35.46" density="25.31" occupancy="4.22" waitingTime="776.00" speed="5.92" departed="75" arrived="0" entered="0" left="75" laneChangedFrom="80" laneChangedTo="80"/>
        <edge id="60to57" sampledSeconds="1613.83" traveltime="34.62" density="88.50" occupancy="14.75" waitingTime="1182.00" speed="1.05" departed="0" arrived="0" entered="41" left="41" laneChangedFrom="5" laneChangedTo="5"/>
        <edge id="60to61" sampledSeconds="173.37" traveltime="3.29" density="7.89" occupancy="1.97" waitingTime="0.00" speed="13.36" departed="0" arrived="48" entered="48" left="0" laneChangedFrom="0" laneChangedTo="0"/>
        <edge id="61to60" sampledSeconds="377.49" traveltime="9.23" density="17.18" occupancy="4.30" waitingTime="67.00" speed="4.76" departed="41" arrived="0" entered="0" left="41" laneChangedFrom="11" laneChangedTo="11"/>
        <edge id="62to57" sampledSeconds="3240.81" traveltime="35.76" density="103.71" occupancy="17.28" waitingTime="2084.00" speed="1.75" departed="0" arrived="0" entered="84" left="83" laneChangedFrom="4" laneChangedTo="4"/>
        <edge id="62to63" sampledSeconds="500.07" traveltime="7.27" density="11.69" occupancy="2.92" waitingTime="2.00" speed="11.77" departed="0" arrived="0" entered="65" left="65" laneChangedFrom="10" laneChangedTo="10"/>
        <edge id="63to62" sampledSeconds="971.33" traveltime="10.93" density="22.71" occupancy="5.68" waitingTime="138.00" speed="7.83" departed="0" arrived="0" entered="84" left="84" laneChangedFrom="9" laneChangedTo="9"/>
        <edge id="63to64" sampledSeconds="372.95" traveltime="4.85" density="27.21" occupancy="4.54" waitingTime="103.00" speed="5.65" departed="0" arrived="0" entered="65" left="65" laneChangedFrom="2" laneChangedTo="2"/>
        <edge id="64to63" sampledSeconds="221.56" traveltime="2.23" density="16.17" occupancy="4.04" waitingTime="0.00" speed="12.29" departed="0" arrived="0" entered="84" left="84" laneChangedFrom="2" laneChangedTo="2"/>
        <edge id="64to65" sampledSeconds="117.28" traveltime="5.52" density="3.42" occupancy="1.71" waitingTime="0.00" speed="12.41" departed="0" arrived="20" entered="20" left="0" laneChangedFrom="0" laneChangedTo="0"/>
        <edge id="64to66" sampledSeconds="16.90" traveltime="1.81" density="1.42" occupancy="0.71" waitingTime="0.00" speed="13.14" departed="0" arrived="8" entered="8" left="0" laneChangedFrom="0" laneChangedTo="0"/>
        <edge id="64to67" sampledSeconds="146.44" traveltime="2.39" density="9.77" occupancy="2.44" waitingTime="0.00" speed="12.56" departed="0" arrived="0" entered="53" left="52" laneChangedFrom="0" laneChangedTo="0"/>
        <edge id="65to64" sampledSeconds="0.00" departed="0" arrived="0" entered="0" left="0" laneChangedFrom="0" laneChangedTo="0"/>
        <edge id="66to64" sampledSeconds="614.13" traveltime="36.28" density="51.59" occupancy="25.79" waitingTime="480.00" speed="0.66" departed="17" arrived="0" entered="0" left="17" laneChangedFrom="0" laneChangedTo="0"/>
        <edge id="67to64" sampledSeconds="258.14" traveltime="2.67" density="17.22" occupancy="2.87" waitingTime="22.00" speed="11.25" departed="0" arrived="0" entered="83" left="83" laneChangedFrom="0" laneChangedTo="0"/>
        <edge id="67to68" sampledSeconds="523.56" traveltime="10.09" density="8.07" occupancy="2.02" waitingTime="0.00" speed="12.86" departed="0" arrived="0" entered="52" left="49" laneChangedFrom="5" laneChangedTo="5"/>
        <edge id="68to67" sampledSeconds="894.43" traveltime="10.38" density="13.78" occupancy="3.44" waitingTime="0.00" speed="12.51" departed="0" arrived="0" entered="83" left="83" laneChangedFrom="9" laneChangedTo="9"/>
        <edge id="68to69" sampledSeconds="708.43" traveltime="12.33" density="48.81" occupancy="8.13" waitingTime="464.00" speed="2.35" departed="0" arrived="0" entered="49" left="49" laneChangedFrom="3" laneChangedTo="3"/>
        <edge id="69to68" sampledSeconds="244.45" traveltime="2.51" density="16.84" occupancy="4.21" waitingTime="0.00" speed="11.55" departed="0" arrived="0" entered="83" left="83" laneChangedFrom="2" laneChangedTo="2"/>
        <edge id="69to70" sampledSeconds="101.02" traveltime="3.57" density="4.37" occupancy="2.19" waitingTime="0.00" speed="12.95" departed="0" arrived="26" entered="26" left="0" laneChangedFrom="0" laneChangedTo="0"/>
        <edge id="69to71" sampledSeconds="76.60" traveltime="3.49" density="3.37" occupancy="1.69" waitingTime="0.00" speed="13.02" departed="0" arrived="20" entered="20" left="0" laneChangedFrom="0" laneChangedTo="0"/>
        <edge id="69to72" sampledSeconds="267.30" traveltime="5.42" density="7.75" occupancy="1.94" waitingTime="0.00" speed="12.73" departed="0" arrived="0" entered="46" left="46" laneChangedFrom="0" laneChangedTo="0"/>
        <edge id="6to15" sampledSeconds="902.39" traveltime="27.76" density="22.38" occupancy="2.80" waitingTime="516.00" speed="2.91" departed="0" arrived="0" entered="32" left="29" laneChangedFrom="4" laneChangedTo="4"/>